                         Program Version 6.0.1  -  RELEASE   -
|  1> ! wB97X-D3 def2-TZVPP TightSCF
|  2>
|  3> %maxcore 5000
|  4>
|  5> %pal
|  6> nprocs 25
|  7> end
|  8>
|  9> * xyz 0 1
| 10> O           1.34496788859366      1.75069885466308      2.40702249806264
| 11>   O          -3.83901441510234     -1.86676660386118      2.30762702803128
| 12>   C           1.14529231719456      0.17371232006510      0.55408125001929
| 13>   C          -0.16734688639036     -0.35965793291767      1.00196576200930
| 14>   C          -2.52287178510106     -0.83927483282851      0.53794027948910
| 15>   C          -1.27811330505612     -0.34229238771154      0.15590777424053
| 16>   C           2.98970761448858      0.09862024405689     -1.05572603976977
| 17>   C           1.73942983793797     -0.32227449143218     -0.60910879024859
| 18>   C           1.83069626453014      1.16676267996399      1.28023978538953
| 19>   C          -0.32594039013145     -0.92181984485015      2.27203739045479
| 20>   C          -2.64405649317418     -1.39538106195035      1.81910099019806
| 21>   C          -3.71642438866418     -0.73675943135978     -0.39048358667443
| 22>   C           3.59912306043680     -0.48175107568266     -2.31815953429996
| 23>   C           3.65749240166735      1.05993218084205     -0.29888278519050
| 24>   C          -1.54659280160692     -1.44252516624940      2.67210999980160
| 25>   C           3.08602375583246      1.59055512516383      0.84794651006263
| 26>   C          -4.33827660899424     -2.06458544632927     -0.73696059872850
| 27>   C           2.83446842230420     -0.13166034107874     -3.56515845410646
| 28>   C          -5.62065119108987     -2.37689177193375     -0.56976564224834
| 29>   C           2.32963979688408     -1.00778810664010     -4.42588794303274
| 30>   H          -1.17811972732385      0.10364385858921     -0.82718084379526
| 31>   H           1.20878632100675     -1.08485132173382     -1.16876381029321
| 32>   H           0.51738799274063     -0.96171015627124      2.94959119457459
| 33>   H          -4.48043322545102     -0.08374173739684      0.04575202596461
| 34>   H          -3.38567488371266     -0.25225346225142     -1.31357046121940
| 35>   H           3.67393093022311     -1.57068459512642     -2.23769467511994
| 36>   H           4.62300800458562     -0.10447107007285     -2.41174397936231
| 37>   H           4.63667963911336      1.40562635649395     -0.61140985623122
| 38>   H          -1.66446050387317     -1.89477903300604      3.64868017472176
| 39>   H           3.59353235437962      2.35438565372748      1.42316789387475
| 40>   H          -3.66086338233750     -2.80870970085490     -1.14845052141067
| 41>   H           2.69423145714546      0.93148120350400     -3.74577160746817
| 42>   H           0.37785930424791      1.68522036589231      2.47946439455509
| 43>   H          -4.41705290211599     -2.12053730813499      1.57277257363767
| 44>   H          -6.00876310484904     -3.34949055013509     -0.84482442151664
| 45>   H          -6.33295355299319     -1.66139453807254     -0.17076048126205
| 46>   H           1.78961424192467     -0.68999797172210     -5.30928849507698
| 47>   H           2.44190240214838     -2.07705114319323     -4.27994368596348
| 48>   H          -5.08293850615530      2.56523437523358      4.45489581667578
| 49>   H          -3.98120718579020      1.01959303686254      5.95562888528330
| 50>   C          -4.65466002447609      1.68897518579692      3.96512830811190
| 51>   O          -2.45581761374000      1.30769875837994      4.60075685383618
| 52>   C          -2.45660134196339      1.95297973383560      3.41618088037013
| 53>   C          -3.78506846750133      0.84624943489178      4.89987084283297
| 54>   O          -3.71927391993103      2.13415654885396      2.96902383411807
| 55>   O          -1.48007640367243      2.32450247705526      2.84009061869126
| 56>   H          -5.43960548190863      1.11812323047032      3.47443723226301
| 57>   H          -3.84258466187964     -0.21896853734502      4.67452110614864
| 58> *
| 59>
| 60>                          ****END OF INPUT****

CARTESIAN COORDINATES (ANGSTROEM)
---------------------------------
  O      1.344968    1.750699    2.407022
  O     -3.839014   -1.866767    2.307627
  C      1.145292    0.173712    0.554081
  C     -0.167347   -0.359658    1.001966
  C     -2.522872   -0.839275    0.537940
  C     -1.278113   -0.342292    0.155908
  C      2.989708    0.098620   -1.055726
  C      1.739430   -0.322274   -0.609109
  C      1.830696    1.166763    1.280240
  C     -0.325940   -0.921820    2.272037
  C     -2.644056   -1.395381    1.819101
  C     -3.716424   -0.736759   -0.390484
  C      3.599123   -0.481751   -2.318160
  C      3.657492    1.059932   -0.298883
  C     -1.546593   -1.442525    2.672110
  C      3.086024    1.590555    0.847947
  C     -4.338277   -2.064585   -0.736961
  C      2.834468   -0.131660   -3.565158
  C     -5.620651   -2.376892   -0.569766
  C      2.329640   -1.007788   -4.425888
  H     -1.178120    0.103644   -0.827181
  H      1.208786   -1.084851   -1.168764
  H      0.517388   -0.961710    2.949591
  H     -4.480433   -0.083742    0.045752
  H     -3.385675   -0.252253   -1.313570
  H      3.673931   -1.570685   -2.237695
  H      4.623008   -0.104471   -2.411744
  H      4.636680    1.405626   -0.611410
  H     -1.664461   -1.894779    3.648680
  H      3.593532    2.354386    1.423168
  H     -3.660863   -2.808710   -1.148451
  H      2.694231    0.931481   -3.745772
  H      0.377859    1.685220    2.479464
  H     -4.417053   -2.120537    1.572773
  H     -6.008763   -3.349491   -0.844824
  H     -6.332954   -1.661395   -0.170760
  H      1.789614   -0.689998   -5.309288
  H      2.441902   -2.077051   -4.279944
  H     -5.082939    2.565234    4.454896
  H     -3.981207    1.019593    5.955629
  C     -4.654660    1.688975    3.965128
  O     -2.455818    1.307699    4.600757
  C     -2.456601    1.952980    3.416181
  C     -3.785068    0.846249    4.899871
  O     -3.719274    2.134157    2.969024
  O     -1.480076    2.324502    2.840091
  H     -5.439605    1.118123    3.474437
  H     -3.842585   -0.218969    4.674521

 Total Charge           Charge          ....    0
 Multiplicity           Mult            ....    1
 Number of Electrons    NEL             ....  188
 Basis Dimension        Dim             .... 1114

ORBITAL ENERGIES
----------------

  NO   OCC          E(Eh)            E(eV)
   0   2.0000     -19.302860      -525.2575
   1   2.0000     -19.302139      -525.2379
   2   2.0000     -19.261912      -524.1433
   3   2.0000     -19.230536      -523.2895
   4   2.0000     -19.229222      -523.2537
   5   2.0000     -10.465469      -284.7799
   6   2.0000     -10.369341      -282.1641
   7   2.0000     -10.366938      -282.0987
   8   2.0000     -10.342291      -281.4280
   9   2.0000     -10.325217      -280.9634
  10   2.0000     -10.305253      -280.4202
  11   2.0000     -10.299300      -280.2582
  12   2.0000     -10.292950      -280.0854
  13   2.0000     -10.291428      -280.0440
  14   2.0000     -10.284470      -279.8546
  15   2.0000     -10.281482      -279.7733
  16   2.0000     -10.279756      -279.7264
  17   2.0000     -10.276714      -279.6436
  18   2.0000     -10.276707      -279.6434
  19   2.0000     -10.276145      -279.6281
  20   2.0000     -10.274674      -279.5881
  21   2.0000     -10.270955      -279.4869
  22   2.0000     -10.267473      -279.3921
  23   2.0000     -10.267135      -279.3830
  24   2.0000     -10.261973      -279.2425
  25   2.0000     -10.259029      -279.1624
  26   2.0000      -1.290932       -35.1280
  27   2.0000      -1.176630       -32.0177
  28   2.0000      -1.175500       -31.9870
  29   2.0000      -1.169828       -31.8326
  30   2.0000      -1.148125       -31.2421
  31   2.0000      -0.985369       -26.8133
  32   2.0000      -0.963990       -26.2315
  33   2.0000      -0.937973       -25.5235
  34   2.0000      -0.912092       -24.8193
  35   2.0000      -0.910167       -24.7669
  36   2.0000      -0.885940       -24.1077
  37   2.0000      -0.876694       -23.8561
  38   2.0000      -0.849555       -23.1176
  39   2.0000      -0.830671       -22.6037
  40   2.0000      -0.806543       -21.9472
  41   2.0000      -0.803775       -21.8718
  42   2.0000      -0.780958       -21.2510
  43   2.0000      -0.736567       -20.0430
  44   2.0000      -0.728075       -19.8119
  45   2.0000      -0.724880       -19.7250
  46   2.0000      -0.697223       -18.9724
  47   2.0000      -0.689002       -18.7487
  48   2.0000      -0.681277       -18.5385
  49   2.0000      -0.663541       -18.0559
  50   2.0000      -0.656191       -17.8559
  51   2.0000      -0.648367       -17.6430
  52   2.0000      -0.641232       -17.4488
  53   2.0000      -0.631015       -17.1708
  54   2.0000      -0.620209       -16.8767
  55   2.0000      -0.597714       -16.2646
  56   2.0000      -0.588435       -16.0121
  57   2.0000      -0.579932       -15.7808
  58   2.0000      -0.571392       -15.5484
  59   2.0000      -0.561505       -15.2793
  60   2.0000      -0.558872       -15.2077
  61   2.0000      -0.554963       -15.1013
  62   2.0000      -0.554085       -15.0774
  63   2.0000      -0.552208       -15.0263
  64   2.0000      -0.539279       -14.6745
  65   2.0000      -0.528168       -14.3722
  66   2.0000      -0.523752       -14.2520
  67   2.0000      -0.518220       -14.1015
  68   2.0000      -0.513608       -13.9760
  69   2.0000      -0.511225       -13.9111
  70   2.0000      -0.498730       -13.5711
  71   2.0000      -0.494909       -13.4672
  72   2.0000      -0.491242       -13.3674
  73   2.0000      -0.489844       -13.3293
  74   2.0000      -0.488153       -13.2833
  75   2.0000      -0.478417       -13.0184
  76   2.0000      -0.466388       -12.6911
  77   2.0000      -0.460086       -12.5196
  78   2.0000      -0.451008       -12.2726
  79   2.0000      -0.446138       -12.1400
  80   2.0000      -0.442469       -12.0402
  81   2.0000      -0.434477       -11.8227
  82   2.0000      -0.426835       -11.6148
  83   2.0000      -0.421209       -11.4617
  84   2.0000      -0.419514       -11.4156
  85   2.0000      -0.416416       -11.3312
  86   2.0000      -0.411273       -11.1913
  87   2.0000      -0.400601       -10.9009
  88   2.0000      -0.376377       -10.2417
  89   2.0000      -0.349563        -9.5121
  90   2.0000      -0.338884        -9.2215
  91   2.0000      -0.337702        -9.1893
  92   2.0000      -0.305545        -8.3143
  93   2.0000      -0.282726        -7.6934
  94   0.0000       0.049540         1.3481
  95   0.0000       0.054366         1.4794
  96   0.0000       0.073618         2.0032
  97   0.0000       0.082616         2.2481
  98   0.0000       0.087119         2.3706

MULLIKEN ATOMIC CHARGES
-----------------------
   0 O :   -0.345243
   1 O :   -0.353753
   2 C :    0.061333
   3 C :   -0.019021
   4 C :   -0.039105
   5 C :   -0.072461
   6 C :   -0.032608
   7 C :   -0.170815
   8 C :    0.188178
   9 C :   -0.130558
  10 C :    0.192289
  11 C :   -0.128321
  12 C :   -0.092728
  13 C :   -0.080790
  14 C :   -0.218034
  15 C :   -0.185084
  16 C :   -0.139313
  17 C :   -0.126057
  18 C :   -0.253197
  19 C :   -0.227002
  20 H :    0.109665
  21 H :    0.110099
  22 H :    0.132158
  23 H :    0.107680
  24 H :    0.086628
  25 H :    0.087998
  26 H :    0.080389
  27 H :    0.101148
  28 H :    0.118615
  29 H :    0.114614
  30 H :    0.125470
  31 H :    0.110670
  32 H :    0.242427
  33 H :    0.219608
  34 H :    0.113591
  35 H :    0.102486
  36 H :    0.099635
  37 H :    0.079033
  38 H :    0.101868
  39 H :    0.108022
  40 C :    0.019479
  41 O :   -0.247561
  42 C :    0.457337
  43 C :    0.003229
  44 O :   -0.256009
  45 O :   -0.346999
  46 H :    0.093660
  47 H :    0.097352
Sum of atomic charges:   -0.0000000

LOEWDIN ATOMIC CHARGES
----------------------
   0 O :    0.340199
   1 O :    0.321113
   2 C :   -0.070831
   3 C :   -0.078277
   4 C :   -0.081330
   5 C :    0.020523
   6 C :   -0.089849
   7 C :    0.015534
   8 C :   -0.183284
   9 C :    0.008609
  10 C :   -0.190780
  11 C :   -0.019795
  12 C :   -0.021984
  13 C :   -0.011641
  14 C :   -0.019735
  15 C :   -0.013217
  16 C :   -0.029230
  17 C :   -0.028911
  18 C :    0.005906
  19 C :   -0.002095
  20 H :    0.028680
  21 H :    0.028081
  22 H :    0.030619
  23 H :    0.034207
  24 H :    0.038135
  25 H :    0.031477
  26 H :    0.031130
  27 H :    0.019141
  28 H :    0.022688
  29 H :    0.022053
  30 H :    0.021792
  31 H :    0.017332
  32 H :   -0.130354
  33 H :   -0.122453
  34 H :    0.003368
  35 H :    0.001623
  36 H :   -0.001612
  37 H :   -0.002000
  38 H :    0.014169
  39 H :    0.016850
  40 C :   -0.061477
  41 O :    0.287912
  42 C :   -0.593191
  43 C :   -0.058813
  44 O :    0.285378
  45 O :    0.130844
  46 H :    0.017411
  47 H :    0.016084

  Mayer bond orders larger than 0.100000
B(  0-O ,  8-C ) :   1.1296 B(  0-O , 32-H ) :   0.9424 B(  1-O , 10-C ) :   1.0694
B(  1-O , 33-H ) :   0.9662 B(  2-C ,  3-C ) :   0.8454 B(  2-C ,  7-C ) :   1.3650
B(  2-C ,  8-C ) :   1.2826 B(  3-C ,  5-C ) :   1.4178 B(  3-C ,  9-C ) :   1.3643
B(  4-C ,  5-C ) :   1.4015 B(  4-C , 10-C ) :   1.3166 B(  4-C , 11-C ) :   0.9131
B(  5-C , 20-H ) :   0.9502 B(  6-C ,  7-C ) :   1.4390 B(  6-C , 12-C ) :   0.9266
B(  6-C , 13-C ) :   1.3791 B(  7-C , 21-H ) :   0.9522 B(  8-C , 15-C ) :   1.4398
B(  9-C , 14-C ) :   1.4504 B(  9-C , 22-H ) :   0.9891 B( 10-C , 14-C ) :   1.3754
B( 11-C , 16-C ) :   0.9219 B( 11-C , 23-H ) :   1.0161 B( 11-C , 24-H ) :   0.9967
B( 12-C , 17-C ) :   0.9345 B( 12-C , 25-H ) :   1.0059 B( 12-C , 26-H ) :   1.0017
B( 13-C , 15-C ) :   1.4717 B( 13-C , 27-H ) :   0.9762 B( 14-C , 28-H ) :   0.9966
B( 15-C , 29-H ) :   0.9738 B( 16-C , 18-C ) :   1.8730 B( 16-C , 30-H ) :   0.9791
B( 17-C , 19-C ) :   1.9074 B( 17-C , 31-H ) :   0.9800 B( 18-C , 34-H ) :   0.9998
B( 18-C , 35-H ) :   1.0011 B( 19-C , 36-H ) :   0.9974 B( 19-C , 37-H ) :   0.9995
B( 38-H , 40-C ) :   0.9897 B( 39-H , 43-C ) :   0.9853 B( 40-C , 43-C ) :   0.9642
B( 40-C , 44-O ) :   0.9248 B( 40-C , 46-H ) :   0.9821 B( 41-O , 42-C ) :   1.1563
B( 41-O , 43-C ) :   0.9289 B( 42-C , 44-O ) :   1.1480 B( 42-C , 45-O ) :   2.0166
B( 43-C , 47-H ) :   0.9848

Dispersion correction           -0.024332252
FINAL SINGLE POINT ENERGY     -1189.718072115306

DIPOLE MOMENT
-------------

Method             : SCF
Type of density    : Electron Density
Multiplicity       :   1
Irrep              :   0
Energy             : -1189.6937398628986102 Eh
Relativity type    :
Basis              : AO
                                X                 Y                 Z
Electronic contribution:      2.157559329       8.557759548      15.212997048
Nuclear contribution   :     -4.778427685      -9.267079488     -14.743401936
                        -----------------------------------------
Total Dipole Moment    :     -2.620868356      -0.709319939       0.469595111
                        -----------------------------------------
Magnitude (a.u.)       :      2.755468252
Magnitude (Debye)      :      7.003843691

Rotational constants in cm-1:             0.009338             0.004131             0.003151
Rotational constants in MHz :           279.941052           123.851766            94.450563

                             ****ORCA TERMINATED NORMALLY****
TOTAL RUN TIME: 0 days 0 hours 1 minutes 52 seconds 604 msec
