                         Program Version 6.0.1  -  RELEASE   -
|  1> ! Opt B3LYP def2-TZVP TightSCF TightOpt
|  2>
|  3> %maxcore 5000
|  4>
|  5> %pal
|  6> nprocs 20
|  7> end
|  8>
|  9> * xyz 0 1
| 10> O         -0.01810        1.11950       -0.11210
| 11> O         -0.01830       -1.11960        0.11150
| 12> O          1.98220       -0.00010        0.00040
| 13> C         -1.35290        0.72760        0.17230
| 14> C         -1.35320       -0.72740       -0.17180
| 15> C          0.76030       -0.00010       -0.00030
| 16> H         -2.06510        1.30160       -0.42630
| 17> H         -1.54830        0.90660        1.23480
| 18> H         -2.06510       -1.30120        0.42740
| 19> H         -1.54950       -0.90630       -1.23420
| 20> *
| 21>
| 22>                          ****END OF INPUT****
 Total Charge           Charge          ....    0
 Multiplicity           Mult            ....    1
 Number of Electrons    NEL             ....   46
FINAL SINGLE POINT ENERGY      -342.370291231892
FINAL SINGLE POINT ENERGY      -342.373502233037
FINAL SINGLE POINT ENERGY      -342.374006491517
FINAL SINGLE POINT ENERGY      -342.374131381356
FINAL SINGLE POINT ENERGY      -342.374173739451
FINAL SINGLE POINT ENERGY      -342.374257290766
FINAL SINGLE POINT ENERGY      -342.374276970464
FINAL SINGLE POINT ENERGY      -342.374290258404
FINAL SINGLE POINT ENERGY      -342.374291987234
FINAL SINGLE POINT ENERGY      -342.374292218279
                    ***********************HURRAY********************

CARTESIAN COORDINATES (ANGSTROEM)
---------------------------------
  O      0.008700    1.114065    0.009966
  O      0.008461   -1.114116   -0.009895
  O      1.973187   -0.000235   -0.000288
  C     -1.367030    0.745212    0.174435
  C     -1.367276   -0.744946   -0.173872
  C      0.786222   -0.000114   -0.000119
  H     -1.974287    1.349952   -0.496055
  H     -1.660491    0.936619    1.208491
  H     -1.974387   -1.349546    0.496871
  H     -1.661099   -0.936291   -1.207832

 Multiplicity           Mult            ....    1
 Number of Electrons    NEL             ....   46
 Basis Dimension        Dim             ....  210

ORBITAL ENERGIES
----------------

  NO   OCC          E(Eh)            E(eV)
   0   2.0000     -19.189352      -522.1688
   1   2.0000     -19.189263      -522.1664
   2   2.0000     -19.115458      -520.1581
   3   2.0000     -10.347402      -281.5671
   4   2.0000     -10.260297      -279.1969
   5   2.0000     -10.260081      -279.1910
   6   2.0000      -1.164434       -31.6859
   7   2.0000      -1.053603       -28.6700
   8   2.0000      -1.047444       -28.5024
   9   2.0000      -0.793548       -21.5935
  10   2.0000      -0.689040       -18.7497
  11   2.0000      -0.616386       -16.7727
  12   2.0000      -0.554005       -15.0752
  13   2.0000      -0.527989       -14.3673
  14   2.0000      -0.515856       -14.0372
  15   2.0000      -0.453672       -12.3450
  16   2.0000      -0.449560       -12.2331
  17   2.0000      -0.446606       -12.1528
  18   2.0000      -0.390199       -10.6179
  19   2.0000      -0.387919       -10.5558
  20   2.0000      -0.321926        -8.7601
  21   2.0000      -0.319893        -8.7047
  22   2.0000      -0.304676        -8.2907
  23   0.0000       0.017678         0.4810
  24   0.0000       0.027263         0.7419
  25   0.0000       0.031533         0.8581
  26   0.0000       0.058093         1.5808
  27   0.0000       0.066904         1.8206

MULLIKEN ATOMIC CHARGES
-----------------------
   0 O :   -0.251720
   1 O :   -0.251793
   2 O :   -0.264885
   3 C :   -0.013520
   4 C :   -0.013510
   5 C :    0.355018
   6 H :    0.114870
   7 H :    0.105327
   8 H :    0.114875
   9 H :    0.105337
Sum of atomic charges:   -0.0000000

LOEWDIN ATOMIC CHARGES
----------------------
   0 O :    0.249554
   1 O :    0.249481
   2 O :    0.130898
   3 C :   -0.265038
   4 C :   -0.264996
   5 C :   -0.608370
   6 H :    0.128848
   7 H :    0.125386
   8 H :    0.128848
   9 H :    0.125389

  Mayer bond orders larger than 0.100000
B(  0-O ,  3-C ) :   0.9447 B(  0-O ,  5-C ) :   1.1421 B(  1-O ,  4-C ) :   0.9446
B(  1-O ,  5-C ) :   1.1420 B(  2-O ,  5-C ) :   2.1661 B(  3-C ,  4-C ) :   0.9848
B(  3-C ,  6-H ) :   0.9599 B(  3-C ,  7-H ) :   0.9589 B(  4-C ,  8-H ) :   0.9599
B(  4-C ,  9-H ) :   0.9589

FINAL SINGLE POINT ENERGY      -342.374292245331

DIPOLE MOMENT
-------------

Method             : SCF
Type of density    : Electron Density
Multiplicity       :   1
Irrep              :   0
Energy             :  -342.3742922453309916 Eh
Relativity type    :
Basis              : AO
                                X                 Y                 Z
Electronic contribution:      4.704722203      -0.000435398      -0.000895835
Nuclear contribution   :     -6.839504099       0.000772151       0.001235986
                        -----------------------------------------
Total Dipole Moment    :     -2.134781896       0.000336753       0.000340151
                        -----------------------------------------
Magnitude (a.u.)       :      2.134781950
Magnitude (Debye)      :      5.426184491

Rotational constants in cm-1:             0.269019             0.127864             0.090211
Rotational constants in MHz :          8064.976919          3833.276714          2704.451588

                             ****ORCA TERMINATED NORMALLY****
TOTAL RUN TIME: 0 days 0 hours 1 minutes 42 seconds 323 msec
