                         Program Version 6.0.1  -  RELEASE   -
|  1> ! B3LYP def2-TZVP TightSCF
|  2>
|  3> %maxcore 5000
|  4>
|  5> %pal
|  6> nprocs 20
|  7> end
|  8>
|  9> * xyz 0 1
| 10> O           0.66580672284353     -0.45075943218760      0.00007662235310
| 11>   O          -1.47265268743114     -0.77916767228170      0.00003889522228
| 12>   O          -0.70737712073084      1.35242998679934     -0.00105651684733
| 13>   C           1.82118850438721      0.41970651042198     -0.00021897916842
| 14>   C           3.05153742747630     -0.45823037581205     -0.00020423052285
| 15>   C          -0.52082132673025      0.16180663131959     -0.00039344869800
| 16>   C          -2.82036388654811     -0.28455358490689     -0.00039762428973
| 17>   H           1.77590000830035      1.06033192646663     -0.88244061653073
| 18>   H           1.77615087651848      1.06059256258111      0.88183310405866
| 19>   H           3.94631972342973      0.16731773853903      0.00021167200116
| 20>   H           3.07753579455193     -1.09566193066220      0.88470933430767
| 21>   H           3.07798525278333     -1.09528353878009     -0.88536774082887
| 22>   H          -3.00724588270878      0.31892384142160      0.88745800698419
| 23>   H          -3.45176253692118     -1.16899808983519      0.00013615881637
| 24>   H          -3.00710086922054      0.31774542691643     -0.88908463685750
| 25> *
| 26>
| 27>                          ****END OF INPUT****

CARTESIAN COORDINATES (ANGSTROEM)
---------------------------------
  O      0.665807   -0.450759    0.000077
  O     -1.472653   -0.779168    0.000039
  O     -0.707377    1.352430   -0.001057
  C      1.821189    0.419707   -0.000219
  C      3.051537   -0.458230   -0.000204
  C     -0.520821    0.161807   -0.000393
  C     -2.820364   -0.284554   -0.000398
  H      1.775900    1.060332   -0.882441
  H      1.776151    1.060593    0.881833
  H      3.946320    0.167318    0.000212
  H      3.077536   -1.095662    0.884709
  H      3.077985   -1.095284   -0.885368
  H     -3.007246    0.318924    0.887458
  H     -3.451763   -1.168998    0.000136
  H     -3.007101    0.317745   -0.889085

 Total Charge           Charge          ....    0
 Multiplicity           Mult            ....    1
 Number of Electrons    NEL             ....   56
 Basis Dimension        Dim             ....  265

ORBITAL ENERGIES
----------------

  NO   OCC          E(Eh)            E(eV)
   0   2.0000     -19.173647      -521.7415
   1   2.0000     -19.171692      -521.6883
   2   2.0000     -19.108852      -519.9783
   3   2.0000     -10.338653      -281.3291
   4   2.0000     -10.231420      -278.4111
   5   2.0000     -10.226610      -278.2802
   6   2.0000     -10.170316      -276.7484
   7   2.0000      -1.142356       -31.0851
   8   2.0000      -1.055938       -28.7335
   9   2.0000      -1.020188       -27.7607
  10   2.0000      -0.785865       -21.3845
  11   2.0000      -0.727104       -19.7855
  12   2.0000      -0.642085       -17.4720
  13   2.0000      -0.578549       -15.7431
  14   2.0000      -0.548906       -14.9365
  15   2.0000      -0.513299       -13.9676
  16   2.0000      -0.487982       -13.2787
  17   2.0000      -0.474445       -12.9103
  18   2.0000      -0.445617       -12.1259
  19   2.0000      -0.423045       -11.5116
  20   2.0000      -0.420698       -11.4478
  21   2.0000      -0.398551       -10.8451
  22   2.0000      -0.374121       -10.1803
  23   2.0000      -0.370747       -10.0885
  24   2.0000      -0.359210        -9.7746
  25   2.0000      -0.312989        -8.5169
  26   2.0000      -0.307631        -8.3711
  27   2.0000      -0.292257        -7.9527
  28   0.0000       0.035143         0.9563
  29   0.0000       0.036518         0.9937
  30   0.0000       0.052935         1.4404
  31   0.0000       0.067415         1.8345
  32   0.0000       0.086114         2.3433

MULLIKEN ATOMIC CHARGES
-----------------------
   0 O :   -0.261369
   1 O :   -0.266926
   2 O :   -0.361480
   3 C :   -0.019468
   4 C :   -0.294554
   5 C :    0.436180
   6 C :   -0.155589
   7 H :    0.107331
   8 H :    0.107303
   9 H :    0.107546
  10 H :    0.112851
  11 H :    0.112840
  12 H :    0.124689
  13 H :    0.125965
  14 H :    0.124682
Sum of atomic charges:    0.0000000

LOEWDIN ATOMIC CHARGES
----------------------
   0 O :    0.257636
   1 O :    0.237570
   2 O :    0.079750
   3 C :   -0.291804
   4 C :   -0.302075
   5 C :   -0.640503
   6 C :   -0.294982
   7 H :    0.125798
   8 H :    0.125794
   9 H :    0.125116
  10 H :    0.121935
  11 H :    0.121921
  12 H :    0.110829
  13 H :    0.112189
  14 H :    0.110827

  Mayer bond orders larger than 0.100000
B(  0-O ,  3-C ) :   0.8679 B(  0-O ,  5-C ) :   1.2172 B(  1-O ,  5-C ) :   1.2055
B(  1-O ,  6-C ) :   0.8954 B(  2-O ,  5-C ) :   1.9533 B(  3-C ,  4-C ) :   0.9811
B(  3-C ,  7-H ) :   0.9685 B(  3-C ,  8-H ) :   0.9685 B(  4-C ,  9-H ) :   0.9677
B(  4-C , 10-H ) :   0.9704 B(  4-C , 11-H ) :   0.9704 B(  6-C , 12-H ) :   0.9743
B(  6-C , 13-H ) :   0.9658 B(  6-C , 14-H ) :   0.9743

FINAL SINGLE POINT ENERGY      -382.883926346354

DIPOLE MOMENT
-------------

Method             : SCF
Type of density    : Electron Density
Multiplicity       :   1
Irrep              :   0
Energy             :  -382.8839263463537463 Eh
Relativity type    :
Basis              : AO
                                X                 Y                 Z
Electronic contribution:     -3.895957934       0.161650297       0.000195803
Nuclear contribution   :      4.023201887      -0.376184533      -0.000065788
                        -----------------------------------------
Total Dipole Moment    :      0.127243953      -0.214534236       0.000130015
                        -----------------------------------------
Magnitude (a.u.)       :      0.249431311
Magnitude (Debye)      :      0.634004009

Rotational constants in cm-1:             0.284842             0.044788             0.039563
Rotational constants in MHz :          8539.349709          1342.710893          1186.078753

                             ****ORCA TERMINATED NORMALLY****
TOTAL RUN TIME: 0 days 0 hours 0 minutes 10 seconds 610 msec
