                         Program Version 6.0.1  -  RELEASE   -
|  1> ! Opt B3LYP def2-TZVP TightSCF TightOpt
|  2>
|  3> %maxcore 5000
|  4>
|  5> %pal
|  6> nprocs 20
|  7> end
|  8>
|  9> * xyz 0 1
| 10> F         -1.73320        0.68190       -0.74970
| 11> O          0.06590        0.89910        0.56450
| 12> O          0.48020       -1.13660       -0.30030
| 13> O          2.16930        0.41450       -0.21450
| 14> C         -1.18080        0.24700        0.41100
| 15> C         -0.81200       -1.19520        0.29280
| 16> C          1.01050        0.08940       -0.00390
| 17> H         -1.86370        0.46440        1.23610
| 18> H         -0.71650       -1.68710        1.26590
| 19> H         -1.49640       -1.75840       -0.34660
| 20> *
| 21>
| 22>                          ****END OF INPUT****
 Total Charge           Charge          ....    0
 Multiplicity           Mult            ....    1
 Number of Electrons    NEL             ....   54
FINAL SINGLE POINT ENERGY      -441.626912736588
FINAL SINGLE POINT ENERGY      -441.631038136290
FINAL SINGLE POINT ENERGY      -441.631901292075
FINAL SINGLE POINT ENERGY      -441.631971714878
FINAL SINGLE POINT ENERGY      -441.632358329204
FINAL SINGLE POINT ENERGY      -441.632431428242
FINAL SINGLE POINT ENERGY      -441.632474913776
FINAL SINGLE POINT ENERGY      -441.632483405644
FINAL SINGLE POINT ENERGY      -441.632485145231
FINAL SINGLE POINT ENERGY      -441.632485609413
FINAL SINGLE POINT ENERGY      -441.632485779546
                    ***********************HURRAY********************

CARTESIAN COORDINATES (ANGSTROEM)
---------------------------------
  F     -1.899465    0.665854   -0.688269
  O      0.049182    0.918932    0.434082
  O      0.560029   -1.171559   -0.150160
  O      2.162959    0.419859   -0.214737
  C     -1.180264    0.256719    0.414671
  C     -0.801218   -1.216339    0.288133
  C      1.048786    0.081367   -0.009575
  H     -1.755908    0.529598    1.297040
  H     -0.854850   -1.740300    1.243516
  H     -1.405953   -1.725132   -0.459401

 Multiplicity           Mult            ....    1
 Number of Electrons    NEL             ....   54
 Basis Dimension        Dim             ....  235

ORBITAL ENERGIES
----------------

  NO   OCC          E(Eh)            E(eV)
   0   2.0000     -24.703732      -672.2227
   1   2.0000     -19.208974      -522.7028
   2   2.0000     -19.206525      -522.6361
   3   2.0000     -19.132715      -520.6276
   4   2.0000     -10.364491      -282.0321
   5   2.0000     -10.344254      -281.4815
   6   2.0000     -10.273125      -279.5459
   7   2.0000      -1.245413       -33.8894
   8   2.0000      -1.178694       -32.0739
   9   2.0000      -1.074375       -29.2352
  10   2.0000      -1.066423       -29.0188
  11   2.0000      -0.802565       -21.8389
  12   2.0000      -0.705737       -19.2041
  13   2.0000      -0.645545       -17.5662
  14   2.0000      -0.584221       -15.8975
  15   2.0000      -0.572791       -15.5864
  16   2.0000      -0.538641       -14.6572
  17   2.0000      -0.508259       -13.8304
  18   2.0000      -0.485328       -13.2065
  19   2.0000      -0.467920       -12.7328
  20   2.0000      -0.449720       -12.2375
  21   2.0000      -0.423470       -11.5232
  22   2.0000      -0.405753       -11.0411
  23   2.0000      -0.380927       -10.3655
  24   2.0000      -0.363368        -9.8877
  25   2.0000      -0.333908        -9.0861
  26   2.0000      -0.321795        -8.7565
  27   0.0000       0.010403         0.2831
  28   0.0000       0.021266         0.5787
  29   0.0000       0.035150         0.9565
  30   0.0000       0.057080         1.5532
  31   0.0000       0.078675         2.1409

MULLIKEN ATOMIC CHARGES
-----------------------
   0 F :   -0.214900
   1 O :   -0.231523
   2 O :   -0.240852
   3 O :   -0.240025
   4 C :    0.241369
   5 C :   -0.008784
   6 C :    0.356734
   7 H :    0.096514
   8 H :    0.111254
   9 H :    0.130213
Sum of atomic charges:    0.0000000

LOEWDIN ATOMIC CHARGES
----------------------
   0 F :    0.120454
   1 O :    0.282627
   2 O :    0.264374
   3 O :    0.151602
   4 C :   -0.398303
   5 C :   -0.240963
   6 C :   -0.585223
   7 H :    0.132631
   8 H :    0.133182
   9 H :    0.139619

  Mayer bond orders larger than 0.100000
B(  0-F ,  4-C ) :   1.0450 B(  1-O ,  4-C ) :   1.0421 B(  1-O ,  6-C ) :   1.0797
B(  2-O ,  5-C ) :   0.9470 B(  2-O ,  6-C ) :   1.1548 B(  3-O ,  6-C ) :   2.1839
B(  4-C ,  5-C ) :   0.9747 B(  4-C ,  7-H ) :   0.9750 B(  5-C ,  8-H ) :   0.9459
B(  5-C ,  9-H ) :   0.9558

FINAL SINGLE POINT ENERGY      -441.632485802290

DIPOLE MOMENT
-------------

Method             : SCF
Type of density    : Electron Density
Multiplicity       :   1
Irrep              :   0
Energy             :  -441.6324858022899207 Eh
Relativity type    :
Basis              : AO
                                X                 Y                 Z
Electronic contribution:      0.384639488       2.555260022      -1.803421491
Nuclear contribution   :     -1.840183293      -3.401907833       2.619362971
                        -----------------------------------------
Total Dipole Moment    :     -1.455543805      -0.846647811       0.815941480
                        -----------------------------------------
Magnitude (a.u.)       :      1.871144245
Magnitude (Debye)      :      4.756070699

Rotational constants in cm-1:             0.185828             0.079831             0.063943
Rotational constants in MHz :          5570.996574          2393.271046          1916.951086

                             ****ORCA TERMINATED NORMALLY****
TOTAL RUN TIME: 0 days 0 hours 2 minutes 2 seconds 14 msec
