                         Program Version 6.0.1  -  RELEASE   -
|  1> ! Opt B3LYP def2-TZVP TightSCF TightOpt CPCM(water)
|  2>
|  3> %maxcore 5000
|  4>
|  5> %pal
|  6> nprocs 20
|  7> end
|  8>
|  9> * xyz 0 1
| 10> O           1.43781396904993      1.31956612345791      2.48468433319581
| 11>   O          -3.62347843921718     -2.41724762608739      2.17112963576646
| 12>   C           1.23165087469998     -0.04524406273437      0.48175268561596
| 13>   C          -0.05012954589113     -0.65101744071631      0.92722451694895
| 14>   C          -2.40247599363198     -1.17018447501868      0.48054858121080
| 15>   C          -1.18619584648327     -0.59889388847865      0.11437325586950
| 16>   C           2.98671349428596      0.16172341264446     -1.21215839741290
| 17>   C           1.78640847772282     -0.37901636024270     -0.75579095655152
| 18>   C           1.91364468124659      0.89170120951340      1.27839826479913
| 19>   C          -0.16528004599369     -1.31154866721798      2.15724603164201
| 20>   C          -2.47719084918800     -1.83509953484444      1.71527307384049
| 21>   C          -3.61882313162164     -1.03763140152487     -0.41452229491397
| 22>   C           3.55763066373366     -0.24510356891412     -2.55778596311962
| 23>   C           3.64211878060039      1.07664773964895     -0.38967756999719
| 24>   C          -1.36131883286036     -1.89633601264824      2.54500150927538
| 25>   C           3.11264860069266      1.44271939201016      0.83960929677719
| 26>   C          -4.20446513091141     -2.35282843998708     -0.86066146783848
| 27>   C           2.68255033666981      0.13917581891887     -3.71901332384119
| 28>   C          -5.47582989442325     -2.71293389458071     -0.70951440370433
| 29>   C           2.19414321790238     -0.70348418126244     -4.62143192850212
| 30>   H          -1.12460822711274     -0.07615306412587     -0.83348737784514
| 31>   H           1.26403225671752     -1.10060012982200     -1.37392145731422
| 32>   H           0.70081798328530     -1.40372573930811      2.80194484009726
| 33>   H          -4.39612253758763     -0.45202524555229      0.08900696020899
| 34>   H          -3.32510329965460     -0.46649040195218     -1.30004366119698
| 35>   H           3.73330844460754     -1.32510454919781     -2.58297114513916
| 36>   H           4.53597071845039      0.23246026544822     -2.67605930204806
| 37>   H           4.58076893342698      1.51307857937819     -0.71196482832420
| 38>   H          -1.44513104884310     -2.42398580467270      3.48636157770594
| 39>   H           3.61250715706545      2.16559210094313      1.47150912258637
| 40>   H          -3.51037409872096     -3.04098535599171     -1.33664325474117
| 41>   H           2.44395701096569      1.19733239237477     -3.79630315117068
| 42>   H           0.56607731197043      0.93171817042748      2.64077888837304
| 43>   H          -4.23488212903567     -2.57265466930178      1.43672265040035
| 44>   H          -5.83907487278300     -3.67107868737665     -1.05895616458907
| 45>   H          -6.20283074610648     -2.05403842652119     -0.24523589971118
| 46>   H           1.57171583625792     -0.36205147411773     -5.43930106676794
| 47>   H           2.40419585081472     -1.76704531166749     -4.57823511468454
| 48> *
| 49>
| 50>                          ****END OF INPUT****
 Total Charge           Charge          ....    0
 Multiplicity           Mult            ....    1
 Number of Electrons    NEL             ....  142
FINAL SINGLE POINT ENERGY      -846.983288445002
FINAL SINGLE POINT ENERGY      -846.983420811773
FINAL SINGLE POINT ENERGY      -846.983459436076
FINAL SINGLE POINT ENERGY      -846.983485752418
FINAL SINGLE POINT ENERGY      -846.983516502745
FINAL SINGLE POINT ENERGY      -846.983539108034
FINAL SINGLE POINT ENERGY      -846.983565230037
FINAL SINGLE POINT ENERGY      -846.983584250919
FINAL SINGLE POINT ENERGY      -846.983585007774
FINAL SINGLE POINT ENERGY      -846.983594490170
FINAL SINGLE POINT ENERGY      -846.983597441395
FINAL SINGLE POINT ENERGY      -846.983599828886
FINAL SINGLE POINT ENERGY      -846.983600103217
FINAL SINGLE POINT ENERGY      -846.983526192231
FINAL SINGLE POINT ENERGY      -846.983599304176
FINAL SINGLE POINT ENERGY      -846.983600154202
FINAL SINGLE POINT ENERGY      -846.983600211099
                    ***********************HURRAY********************

CARTESIAN COORDINATES (ANGSTROEM)
---------------------------------
  O      1.433165    1.412614    2.399501
  O     -3.689001   -2.303031    2.263417
  C      1.200862   -0.072074    0.480724
  C     -0.089431   -0.640480    0.953704
  C     -2.436595   -1.187377    0.503368
  C     -1.212030   -0.646067    0.118452
  C      2.961604    0.009180   -1.223506
  C      1.753542   -0.485840   -0.736192
  C      1.898359    0.900983    1.218467
  C     -0.223583   -1.211342    2.225551
  C     -2.531254   -1.757669    1.783495
  C     -3.632277   -1.132861   -0.426657
  C      3.509485   -0.459537   -2.558181
  C      3.635187    0.959347   -0.455011
  C     -1.429251   -1.763971    2.634230
  C      3.108487    1.405258    0.749806
  C     -4.162202   -2.489796   -0.816817
  C      2.926053    0.295535   -3.723698
  C     -5.423411   -2.886002   -0.665445
  C      2.262565   -0.254466   -4.735827
  H     -1.137126   -0.198232   -0.865915
  H      1.222090   -1.237237   -1.309898
  H      0.627467   -1.256608    2.894836
  H     -4.439189   -0.549508    0.029782
  H     -3.329042   -0.598306   -1.331001
  H      3.317660   -1.527465   -2.688002
  H      4.595826   -0.322308   -2.556488
  H      4.582822    1.358099   -0.799290
  H     -1.525145   -2.218328    3.612665
  H      3.625225    2.153387    1.338649
  H     -3.435778   -3.173236   -1.249771
  H      3.071407    1.373516   -3.705116
  H      0.555509    1.052683    2.592710
  H     -4.314416   -2.464997    1.540502
  H     -5.745864   -3.873894   -0.971382
  H     -6.177018   -2.231246   -0.238644
  H      1.866959    0.345773   -5.546765
  H      2.093697   -1.325287   -4.788367

 Multiplicity           Mult            ....    1
 Number of Electrons    NEL             ....  142
 Basis Dimension        Dim             ....  728

ORBITAL ENERGIES
----------------

  NO   OCC          E(Eh)            E(eV)
   0   2.0000     -19.155207      -521.2397
   1   2.0000     -19.153825      -521.2021
   2   2.0000     -10.236682      -278.5543
   3   2.0000     -10.233972      -278.4805
   4   2.0000     -10.185715      -277.1674
   5   2.0000     -10.184272      -277.1281
   6   2.0000     -10.183733      -277.1135
   7   2.0000     -10.181910      -277.0639
   8   2.0000     -10.180219      -277.0178
   9   2.0000     -10.178086      -276.9598
  10   2.0000     -10.176085      -276.9053
  11   2.0000     -10.175236      -276.8823
  12   2.0000     -10.173095      -276.8240
  13   2.0000     -10.172187      -276.7993
  14   2.0000     -10.171242      -276.7736
  15   2.0000     -10.170937      -276.7653
  16   2.0000     -10.170908      -276.7645
  17   2.0000     -10.168213      -276.6911
  18   2.0000     -10.167396      -276.6689
  19   2.0000     -10.158357      -276.4229
  20   2.0000      -1.061210       -28.8770
  21   2.0000      -1.059583       -28.8327
  22   2.0000      -0.870844       -23.6969
  23   2.0000      -0.853890       -23.2355
  24   2.0000      -0.810542       -22.0560
  25   2.0000      -0.797695       -21.7064
  26   2.0000      -0.774613       -21.0783
  27   2.0000      -0.757177       -20.6038
  28   2.0000      -0.745121       -20.2758
  29   2.0000      -0.722830       -19.6692
  30   2.0000      -0.686667       -18.6852
  31   2.0000      -0.676168       -18.3995
  32   2.0000      -0.635739       -17.2993
  33   2.0000      -0.616692       -16.7810
  34   2.0000      -0.596729       -16.2378
  35   2.0000      -0.588762       -16.0210
  36   2.0000      -0.563723       -15.3397
  37   2.0000      -0.552692       -15.0395
  38   2.0000      -0.549566       -14.9545
  39   2.0000      -0.536049       -14.5866
  40   2.0000      -0.495502       -13.4833
  41   2.0000      -0.491882       -13.3848
  42   2.0000      -0.480489       -13.0748
  43   2.0000      -0.469583       -12.7780
  44   2.0000      -0.456890       -12.4326
  45   2.0000      -0.442963       -12.0536
  46   2.0000      -0.439883       -11.9698
  47   2.0000      -0.435793       -11.8585
  48   2.0000      -0.428893       -11.6708
  49   2.0000      -0.426492       -11.6054
  50   2.0000      -0.415226       -11.2989
  51   2.0000      -0.414450       -11.2778
  52   2.0000      -0.409466       -11.1421
  53   2.0000      -0.405225       -11.0267
  54   2.0000      -0.397410       -10.8141
  55   2.0000      -0.393848       -10.7171
  56   2.0000      -0.372502       -10.1363
  57   2.0000      -0.366293        -9.9674
  58   2.0000      -0.357603        -9.7309
  59   2.0000      -0.355833        -9.6827
  60   2.0000      -0.350608        -9.5405
  61   2.0000      -0.348000        -9.4696
  62   2.0000      -0.338030        -9.1983
  63   2.0000      -0.333528        -9.0758
  64   2.0000      -0.326398        -8.8817
  65   2.0000      -0.273253        -7.4356
  66   2.0000      -0.266044        -7.2394
  67   2.0000      -0.261346        -7.1116
  68   2.0000      -0.257168        -6.9979
  69   2.0000      -0.232571        -6.3286
  70   2.0000      -0.215171        -5.8551
  71   0.0000      -0.028040        -0.7630
  72   0.0000      -0.023992        -0.6529
  73   0.0000      -0.007004        -0.1906
  74   0.0000       0.003491         0.0950
  75   0.0000       0.004063         0.1106

MULLIKEN ATOMIC CHARGES
-----------------------
   0 O :   -0.436636
   1 O :   -0.433216
   2 C :    0.121174
   3 C :    0.081297
   4 C :    0.055278
   5 C :   -0.297131
   6 C :    0.135871
   7 C :   -0.291285
   8 C :    0.214240
   9 C :   -0.252853
  10 C :    0.265316
  11 C :   -0.237585
  12 C :   -0.184750
  13 C :   -0.182928
  14 C :   -0.247862
  15 C :   -0.262952
  16 C :   -0.179739
  17 C :   -0.141577
  18 C :   -0.300231
  19 C :   -0.326004
  20 H :    0.148462
  21 H :    0.143608
  22 H :    0.162434
  23 H :    0.147806
  24 H :    0.134657
  25 H :    0.121500
  26 H :    0.122617
  27 H :    0.132422
  28 H :    0.131724
  29 H :    0.128257
  30 H :    0.135836
  31 H :    0.130007
  32 H :    0.354114
  33 H :    0.348342
  34 H :    0.145198
  35 H :    0.146586
  36 H :    0.136742
  37 H :    0.131260
Sum of atomic charges:    0.0000000

LOEWDIN ATOMIC CHARGES
----------------------
   0 O :    0.067255
   1 O :    0.072372
   2 C :   -0.098895
   3 C :   -0.127808
   4 C :   -0.127648
   5 C :   -0.072747
   6 C :   -0.153518
   7 C :   -0.074384
   8 C :   -0.239403
   9 C :   -0.119392
  10 C :   -0.240128
  11 C :   -0.199809
  12 C :   -0.200262
  13 C :   -0.118104
  14 C :   -0.124920
  15 C :   -0.131175
  16 C :   -0.198896
  17 C :   -0.193433
  18 C :   -0.218999
  19 C :   -0.230054
  20 H :    0.159050
  21 H :    0.158161
  22 H :    0.156902
  23 H :    0.155873
  24 H :    0.158734
  25 H :    0.149902
  26 H :    0.152223
  27 H :    0.152480
  28 H :    0.153555
  29 H :    0.151675
  30 H :    0.147097
  31 H :    0.143260
  32 H :    0.195327
  33 H :    0.193022
  34 H :    0.127121
  35 H :    0.128595
  36 H :    0.123417
  37 H :    0.123552

  Mayer bond orders larger than 0.100000
B(  0-O ,  8-C ) :   1.1420 B(  0-O , 32-H ) :   0.8475 B(  1-O , 10-C ) :   1.1330
B(  1-O , 33-H ) :   0.8469 B(  2-C ,  3-C ) :   0.8837 B(  2-C ,  7-C ) :   1.3082
B(  2-C ,  8-C ) :   1.2386 B(  3-C ,  5-C ) :   1.3846 B(  3-C ,  9-C ) :   1.3202
B(  4-C ,  5-C ) :   1.3607 B(  4-C , 10-C ) :   1.2443 B(  4-C , 11-C ) :   0.9226
B(  5-C , 20-H ) :   0.9571 B(  6-C ,  7-C ) :   1.3839 B(  6-C , 12-C ) :   0.9026
B(  6-C , 13-C ) :   1.3475 B(  7-C , 21-H ) :   0.9696 B(  8-C , 15-C ) :   1.3910
B(  9-C , 14-C ) :   1.4230 B(  9-C , 22-H ) :   0.9847 B( 10-C , 14-C ) :   1.3818
B( 11-C , 16-C ) :   0.9482 B( 11-C , 23-H ) :   0.9728 B( 11-C , 24-H ) :   0.9576
B( 12-C , 17-C ) :   0.9589 B( 12-C , 25-H ) :   0.9684 B( 12-C , 26-H ) :   0.9625
B( 13-C , 15-C ) :   1.4157 B( 13-C , 27-H ) :   0.9859 B( 14-C , 28-H ) :   0.9918
B( 15-C , 29-H ) :   0.9931 B( 16-C , 18-C ) :   1.8940 B( 16-C , 30-H ) :   0.9558
B( 17-C , 19-C ) :   1.9138 B( 17-C , 31-H ) :   0.9557 B( 18-C , 34-H ) :   0.9659
B( 18-C , 35-H ) :   0.9582 B( 19-C , 36-H ) :   0.9661 B( 19-C , 37-H ) :   0.9615

FINAL SINGLE POINT ENERGY      -846.983600234178

DIPOLE MOMENT
-------------

Method             : SCF
Type of density    : Electron Density
Multiplicity       :   1
Irrep              :   0
Energy             :  -846.9836002341775156 Eh
Relativity type    :
Basis              : AO
                                X                 Y                 Z
Electronic contribution:      2.330982031       2.775140209      12.455835589
Nuclear contribution   :     -3.328311604      -3.242422527     -13.378465705
                        -----------------------------------------
Total Dipole Moment    :     -0.997329573      -0.467282317      -0.922630116
                        -----------------------------------------
Magnitude (a.u.)       :      1.436755154
Magnitude (Debye)      :      3.651941376

Rotational constants in cm-1:             0.016558             0.006115             0.004696
Rotational constants in MHz :           496.392643           183.321639           140.768763

                             ****ORCA TERMINATED NORMALLY****
TOTAL RUN TIME: 0 days 0 hours 14 minutes 20 seconds 514 msec
