                         Program Version 6.0.1  -  RELEASE   -
|  1> ! B3LYP def2-TZVP TightSCF
|  2>
|  3> %maxcore 5000
|  4>
|  5> %pal
|  6> nprocs 20
|  7> end
|  8>
|  9> * xyz 0 1
| 10> O           1.43781396904993      1.31956612345791      2.48468433319581
| 11>   O          -3.62347843921718     -2.41724762608739      2.17112963576646
| 12>   C           1.23165087469998     -0.04524406273437      0.48175268561596
| 13>   C          -0.05012954589113     -0.65101744071631      0.92722451694895
| 14>   C          -2.40247599363198     -1.17018447501868      0.48054858121080
| 15>   C          -1.18619584648327     -0.59889388847865      0.11437325586950
| 16>   C           2.98671349428596      0.16172341264446     -1.21215839741290
| 17>   C           1.78640847772282     -0.37901636024270     -0.75579095655152
| 18>   C           1.91364468124659      0.89170120951340      1.27839826479913
| 19>   C          -0.16528004599369     -1.31154866721798      2.15724603164201
| 20>   C          -2.47719084918800     -1.83509953484444      1.71527307384049
| 21>   C          -3.61882313162164     -1.03763140152487     -0.41452229491397
| 22>   C           3.55763066373366     -0.24510356891412     -2.55778596311962
| 23>   C           3.64211878060039      1.07664773964895     -0.38967756999719
| 24>   C          -1.36131883286036     -1.89633601264824      2.54500150927538
| 25>   C           3.11264860069266      1.44271939201016      0.83960929677719
| 26>   C          -4.20446513091141     -2.35282843998708     -0.86066146783848
| 27>   C           2.68255033666981      0.13917581891887     -3.71901332384119
| 28>   C          -5.47582989442325     -2.71293389458071     -0.70951440370433
| 29>   C           2.19414321790238     -0.70348418126244     -4.62143192850212
| 30>   H          -1.12460822711274     -0.07615306412587     -0.83348737784514
| 31>   H           1.26403225671752     -1.10060012982200     -1.37392145731422
| 32>   H           0.70081798328530     -1.40372573930811      2.80194484009726
| 33>   H          -4.39612253758763     -0.45202524555229      0.08900696020899
| 34>   H          -3.32510329965460     -0.46649040195218     -1.30004366119698
| 35>   H           3.73330844460754     -1.32510454919781     -2.58297114513916
| 36>   H           4.53597071845039      0.23246026544822     -2.67605930204806
| 37>   H           4.58076893342698      1.51307857937819     -0.71196482832420
| 38>   H          -1.44513104884310     -2.42398580467270      3.48636157770594
| 39>   H           3.61250715706545      2.16559210094313      1.47150912258637
| 40>   H          -3.51037409872096     -3.04098535599171     -1.33664325474117
| 41>   H           2.44395701096569      1.19733239237477     -3.79630315117068
| 42>   H           0.56607731197043      0.93171817042748      2.64077888837304
| 43>   H          -4.23488212903567     -2.57265466930178      1.43672265040035
| 44>   H          -5.83907487278300     -3.67107868737665     -1.05895616458907
| 45>   H          -6.20283074610648     -2.05403842652119     -0.24523589971118
| 46>   H           1.57171583625792     -0.36205147411773     -5.43930106676794
| 47>   H           2.40419585081472     -1.76704531166749     -4.57823511468454
| 48> *
| 49>
| 50>                          ****END OF INPUT****

CARTESIAN COORDINATES (ANGSTROEM)
---------------------------------
  O      1.437814    1.319566    2.484684
  O     -3.623478   -2.417248    2.171130
  C      1.231651   -0.045244    0.481753
  C     -0.050130   -0.651017    0.927225
  C     -2.402476   -1.170184    0.480549
  C     -1.186196   -0.598894    0.114373
  C      2.986713    0.161723   -1.212158
  C      1.786408   -0.379016   -0.755791
  C      1.913645    0.891701    1.278398
  C     -0.165280   -1.311549    2.157246
  C     -2.477191   -1.835100    1.715273
  C     -3.618823   -1.037631   -0.414522
  C      3.557631   -0.245104   -2.557786
  C      3.642119    1.076648   -0.389678
  C     -1.361319   -1.896336    2.545002
  C      3.112649    1.442719    0.839609
  C     -4.204465   -2.352828   -0.860661
  C      2.682550    0.139176   -3.719013
  C     -5.475830   -2.712934   -0.709514
  C      2.194143   -0.703484   -4.621432
  H     -1.124608   -0.076153   -0.833487
  H      1.264032   -1.100600   -1.373921
  H      0.700818   -1.403726    2.801945
  H     -4.396123   -0.452025    0.089007
  H     -3.325103   -0.466490   -1.300044
  H      3.733308   -1.325105   -2.582971
  H      4.535971    0.232460   -2.676059
  H      4.580769    1.513079   -0.711965
  H     -1.445131   -2.423986    3.486362
  H      3.612507    2.165592    1.471509
  H     -3.510374   -3.040985   -1.336643
  H      2.443957    1.197332   -3.796303
  H      0.566077    0.931718    2.640779
  H     -4.234882   -2.572655    1.436723
  H     -5.839075   -3.671079   -1.058956
  H     -6.202831   -2.054038   -0.245236
  H      1.571716   -0.362051   -5.439301
  H      2.404196   -1.767045   -4.578235

 Total Charge           Charge          ....    0
 Multiplicity           Mult            ....    1
 Number of Electrons    NEL             ....  142
 Basis Dimension        Dim             ....  728

ORBITAL ENERGIES
----------------

  NO   OCC          E(Eh)            E(eV)
   0   2.0000     -19.154934      -521.2323
   1   2.0000     -19.148244      -521.0502
   2   2.0000     -10.238834      -278.6128
   3   2.0000     -10.229129      -278.3487
   4   2.0000     -10.198159      -277.5060
   5   2.0000     -10.195297      -277.4281
   6   2.0000     -10.190361      -277.2938
   7   2.0000     -10.185763      -277.1687
   8   2.0000     -10.184798      -277.1424
   9   2.0000     -10.181160      -277.0434
  10   2.0000     -10.180550      -277.0269
  11   2.0000     -10.179942      -277.0103
  12   2.0000     -10.174828      -276.8711
  13   2.0000     -10.174219      -276.8546
  14   2.0000     -10.173707      -276.8407
  15   2.0000     -10.172196      -276.7995
  16   2.0000     -10.168713      -276.7048
  17   2.0000     -10.168649      -276.7030
  18   2.0000     -10.163748      -276.5696
  19   2.0000     -10.160486      -276.4809
  20   2.0000      -1.063014       -28.9261
  21   2.0000      -1.055855       -28.7313
  22   2.0000      -0.872274       -23.7358
  23   2.0000      -0.853221       -23.2173
  24   2.0000      -0.822303       -22.3760
  25   2.0000      -0.798923       -21.7398
  26   2.0000      -0.775948       -21.1146
  27   2.0000      -0.764969       -20.8159
  28   2.0000      -0.743056       -20.2196
  29   2.0000      -0.723490       -19.6872
  30   2.0000      -0.697174       -18.9711
  31   2.0000      -0.676329       -18.4038
  32   2.0000      -0.635671       -17.2975
  33   2.0000      -0.621147       -16.9023
  34   2.0000      -0.596766       -16.2388
  35   2.0000      -0.589148       -16.0315
  36   2.0000      -0.578078       -15.7303
  37   2.0000      -0.554949       -15.1009
  38   2.0000      -0.551313       -15.0020
  39   2.0000      -0.539070       -14.6688
  40   2.0000      -0.499335       -13.5876
  41   2.0000      -0.493486       -13.4284
  42   2.0000      -0.485179       -13.2024
  43   2.0000      -0.474894       -12.9225
  44   2.0000      -0.461900       -12.5689
  45   2.0000      -0.455981       -12.4079
  46   2.0000      -0.445335       -12.1182
  47   2.0000      -0.433816       -11.8047
  48   2.0000      -0.431550       -11.7431
  49   2.0000      -0.428004       -11.6466
  50   2.0000      -0.421285       -11.4638
  51   2.0000      -0.417956       -11.3732
  52   2.0000      -0.409153       -11.1336
  53   2.0000      -0.405584       -11.0365
  54   2.0000      -0.399434       -10.8692
  55   2.0000      -0.394275       -10.7288
  56   2.0000      -0.376733       -10.2514
  57   2.0000      -0.369513       -10.0550
  58   2.0000      -0.367391        -9.9972
  59   2.0000      -0.358692        -9.7605
  60   2.0000      -0.354252        -9.6397
  61   2.0000      -0.349874        -9.5206
  62   2.0000      -0.339547        -9.2395
  63   2.0000      -0.332373        -9.0443
  64   2.0000      -0.323782        -8.8106
  65   2.0000      -0.287525        -7.8240
  66   2.0000      -0.265167        -7.2156
  67   2.0000      -0.261267        -7.1094
  68   2.0000      -0.259275        -7.0552
  69   2.0000      -0.230248        -6.2654
  70   2.0000      -0.212547        -5.7837
  71   0.0000      -0.031019        -0.8441
  72   0.0000      -0.026753        -0.7280
  73   0.0000      -0.009004        -0.2450
  74   0.0000      -0.001876        -0.0510
  75   0.0000       0.002572         0.0700

MULLIKEN ATOMIC CHARGES
-----------------------
   0 O :   -0.395417
   1 O :   -0.398799
   2 C :    0.154205
   3 C :    0.058512
   4 C :    0.086120
   5 C :   -0.277749
   6 C :    0.124692
   7 C :   -0.256860
   8 C :    0.193834
   9 C :   -0.250218
  10 C :    0.255470
  11 C :   -0.250573
  12 C :   -0.192446
  13 C :   -0.138642
  14 C :   -0.197793
  15 C :   -0.226929
  16 C :   -0.145959
  17 C :   -0.088339
  18 C :   -0.264728
  19 C :   -0.265975
  20 H :    0.122960
  21 H :    0.120903
  22 H :    0.145180
  23 H :    0.129811
  24 H :    0.117444
  25 H :    0.101623
  26 H :    0.105734
  27 H :    0.095118
  28 H :    0.111800
  29 H :    0.105071
  30 H :    0.117502
  31 H :    0.101528
  32 H :    0.322063
  33 H :    0.322842
  34 H :    0.124614
  35 H :    0.123577
  36 H :    0.108677
  37 H :    0.101146
Sum of atomic charges:    0.0000000

LOEWDIN ATOMIC CHARGES
----------------------
   0 O :    0.085707
   1 O :    0.089637
   2 C :   -0.096579
   3 C :   -0.124676
   4 C :   -0.129092
   5 C :   -0.074276
   6 C :   -0.150348
   7 C :   -0.069801
   8 C :   -0.232462
   9 C :   -0.118796
  10 C :   -0.235919
  11 C :   -0.202352
  12 C :   -0.200401
  13 C :   -0.115923
  14 C :   -0.115645
  15 C :   -0.119289
  16 C :   -0.196205
  17 C :   -0.187689
  18 C :   -0.215640
  19 C :   -0.221115
  20 H :    0.152656
  21 H :    0.153210
  22 H :    0.152296
  23 H :    0.150513
  24 H :    0.153591
  25 H :    0.145910
  26 H :    0.147107
  27 H :    0.143674
  28 H :    0.149647
  29 H :    0.147507
  30 H :    0.144149
  31 H :    0.139402
  32 H :    0.184487
  33 H :    0.183113
  34 H :    0.123843
  35 H :    0.123121
  36 H :    0.118698
  37 H :    0.117938

  Mayer bond orders larger than 0.100000
B(  0-O ,  8-C ) :   1.1575 B(  0-O , 32-H ) :   0.8657 B(  1-O , 10-C ) :   1.1336
B(  1-O , 33-H ) :   0.8620 B(  2-C ,  3-C ) :   0.8587 B(  2-C ,  7-C ) :   1.3187
B(  2-C ,  8-C ) :   1.2348 B(  3-C ,  5-C ) :   1.4247 B(  3-C ,  9-C ) :   1.3278
B(  4-C ,  5-C ) :   1.3456 B(  4-C , 10-C ) :   1.2623 B(  4-C , 11-C ) :   0.9040
B(  5-C , 20-H ) :   0.9532 B(  6-C ,  7-C ) :   1.3861 B(  6-C , 12-C ) :   0.9136
B(  6-C , 13-C ) :   1.3661 B(  7-C , 21-H ) :   0.9694 B(  8-C , 15-C ) :   1.4228
B(  9-C , 14-C ) :   1.4107 B(  9-C , 22-H ) :   0.9840 B( 10-C , 14-C ) :   1.4063
B( 11-C , 16-C ) :   0.9565 B( 11-C , 23-H ) :   0.9789 B( 11-C , 24-H ) :   0.9664
B( 12-C , 17-C ) :   0.9658 B( 12-C , 25-H ) :   0.9639 B( 12-C , 26-H ) :   0.9728
B( 13-C , 15-C ) :   1.4214 B( 13-C , 27-H ) :   0.9768 B( 14-C , 28-H ) :   0.9824
B( 15-C , 29-H ) :   0.9829 B( 16-C , 18-C ) :   1.8941 B( 16-C , 30-H ) :   0.9564
B( 17-C , 19-C ) :   1.9264 B( 17-C , 31-H ) :   0.9546 B( 18-C , 34-H ) :   0.9673
B( 18-C , 35-H ) :   0.9637 B( 19-C , 36-H ) :   0.9662 B( 19-C , 37-H ) :   0.9627

FINAL SINGLE POINT ENERGY      -846.968440901793

DIPOLE MOMENT
-------------

Method             : SCF
Type of density    : Electron Density
Multiplicity       :   1
Irrep              :   0
Energy             :  -846.9684409017925191 Eh
Relativity type    :
Basis              : AO
                                X                 Y                 Z
Electronic contribution:      2.703161964       2.804542125      12.612986667
Nuclear contribution   :     -3.541266284      -3.164442279     -13.319972826
                        -----------------------------------------
Total Dipole Moment    :     -0.838104320      -0.359900154      -0.706986159
                        -----------------------------------------
Magnitude (a.u.)       :      1.154026170
Magnitude (Debye)      :      2.933301412

Rotational constants in cm-1:             0.016354             0.006232             0.004761
Rotational constants in MHz :           490.285606           186.833160           142.743851

                             ****ORCA TERMINATED NORMALLY****
TOTAL RUN TIME: 0 days 0 hours 0 minutes 39 seconds 755 msec
