                         Program Version 6.0.1  -  RELEASE   -
|  1> ! B3LYP def2-TZVP TightSCF
|  2>
|  3> %maxcore 5000
|  4>
|  5> %pal
|  6> nprocs 20
|  7> end
|  8>
|  9> * xyz 0 1
| 10> O           0.00869967845445      1.11406471689826      0.00996550894439
| 11>   O           0.00846125352042     -1.11411596924689     -0.00989542641316
| 12>   O           1.97318737565643     -0.00023518912222     -0.00028760670878
| 13>   C          -1.36703015545739      0.74521165208713      0.17443467116584
| 14>   C          -1.36727648534335     -0.74494623945491     -0.17387210406671
| 15>   C           0.78622160243449     -0.00011368979485     -0.00011906771977
| 16>   H          -1.97428730823526      1.34995239763124     -0.49605497357016
| 17>   H          -1.66049078885011      0.93661918568593      1.20849056571510
| 18>   H          -1.97438660611837     -1.34954562076743      0.49687059862960
| 19>   H          -1.66109856606131     -0.93629124391626     -1.20783216597635
| 20> *
| 21>
| 22>                          ****END OF INPUT****

CARTESIAN COORDINATES (ANGSTROEM)
---------------------------------
  O      0.008700    1.114065    0.009966
  O      0.008461   -1.114116   -0.009895
  O      1.973187   -0.000235   -0.000288
  C     -1.367030    0.745212    0.174435
  C     -1.367276   -0.744946   -0.173872
  C      0.786222   -0.000114   -0.000119
  H     -1.974287    1.349952   -0.496055
  H     -1.660491    0.936619    1.208491
  H     -1.974387   -1.349546    0.496871
  H     -1.661099   -0.936291   -1.207832

 Total Charge           Charge          ....    0
 Multiplicity           Mult            ....    1
 Number of Electrons    NEL             ....   46
 Basis Dimension        Dim             ....  210

ORBITAL ENERGIES
----------------

  NO   OCC          E(Eh)            E(eV)
   0   2.0000     -19.189307      -522.1676
   1   2.0000     -19.189290      -522.1671
   2   2.0000     -19.115451      -520.1579
   3   2.0000     -10.347392      -281.5669
   4   2.0000     -10.260298      -279.1969
   5   2.0000     -10.260082      -279.1910
   6   2.0000      -1.164430       -31.6857
   7   2.0000      -1.053599       -28.6699
   8   2.0000      -1.047439       -28.5023
   9   2.0000      -0.793547       -21.5935
  10   2.0000      -0.689038       -18.7497
  11   2.0000      -0.616383       -16.7726
  12   2.0000      -0.554003       -15.0752
  13   2.0000      -0.527987       -14.3673
  14   2.0000      -0.515854       -14.0371
  15   2.0000      -0.453671       -12.3450
  16   2.0000      -0.449557       -12.2331
  17   2.0000      -0.446603       -12.1527
  18   2.0000      -0.390198       -10.6178
  19   2.0000      -0.387915       -10.5557
  20   2.0000      -0.321924        -8.7600
  21   2.0000      -0.319890        -8.7046
  22   2.0000      -0.304672        -8.2906
  23   0.0000       0.017678         0.4810
  24   0.0000       0.027267         0.7420
  25   0.0000       0.031534         0.8581
  26   0.0000       0.058093         1.5808
  27   0.0000       0.066904         1.8206

MULLIKEN ATOMIC CHARGES
-----------------------
   0 O :   -0.251753
   1 O :   -0.251755
   2 O :   -0.264889
   3 C :   -0.013518
   4 C :   -0.013523
   5 C :    0.355020
   6 H :    0.114872
   7 H :    0.105331
   8 H :    0.114876
   9 H :    0.105338
Sum of atomic charges:   -0.0000000

LOEWDIN ATOMIC CHARGES
----------------------
   0 O :    0.249524
   1 O :    0.249515
   2 O :    0.130896
   3 C :   -0.265036
   4 C :   -0.265004
   5 C :   -0.608369
   6 H :    0.128849
   7 H :    0.125388
   8 H :    0.128849
   9 H :    0.125389

  Mayer bond orders larger than 0.100000
B(  0-O ,  3-C ) :   0.9447 B(  0-O ,  5-C ) :   1.1420 B(  1-O ,  4-C ) :   0.9447
B(  1-O ,  5-C ) :   1.1421 B(  2-O ,  5-C ) :   2.1661 B(  3-C ,  4-C ) :   0.9848
B(  3-C ,  6-H ) :   0.9599 B(  3-C ,  7-H ) :   0.9589 B(  4-C ,  8-H ) :   0.9599
B(  4-C ,  9-H ) :   0.9589

FINAL SINGLE POINT ENERGY      -342.374292244972

DIPOLE MOMENT
-------------

Method             : SCF
Type of density    : Electron Density
Multiplicity       :   1
Irrep              :   0
Energy             :  -342.3742922449721959 Eh
Relativity type    :
Basis              : AO
                                X                 Y                 Z
Electronic contribution:      4.704715178      -0.000551127      -0.000887581
Nuclear contribution   :     -6.839504099       0.000772151       0.001235986
                        -----------------------------------------
Total Dipole Moment    :     -2.134788920       0.000221025       0.000348405
                        -----------------------------------------
Magnitude (a.u.)       :      2.134788960
Magnitude (Debye)      :      5.426202310

Rotational constants in cm-1:             0.269019             0.127864             0.090211
Rotational constants in MHz :          8064.976919          3833.276714          2704.451588

                             ****ORCA TERMINATED NORMALLY****
TOTAL RUN TIME: 0 days 0 hours 0 minutes 8 seconds 716 msec
