                         Program Version 6.0.1  -  RELEASE   -
|  1> ! OPT B3LYP def2-TZVP TightSCF
|  2>
|  3> %maxcore 5000
|  4>
|  5> %pal
|  6> nprocs 30
|  7> end
|  8>
|  9> * xyz 0 1
| 10> O           1.40394536236766      1.71265086054547      2.41382496343717
| 11>   O          -3.83321847192471     -1.82500349696993      2.35174490201986
| 12>   C           1.16399636020894      0.15955464868920      0.55666050161241
| 13>   C          -0.15290603109967     -0.35333915611507      1.01886559625642
| 14>   C          -2.51317832988485     -0.83560416138215      0.56660654625799
| 15>   C          -1.26676983852425     -0.34911594183167      0.17406978999539
| 16>   C           2.98744847952069      0.06988452126101     -1.07723087989819
| 17>   C           1.73747751416792     -0.33723720304261     -0.61711018104794
| 18>   C           1.87423469411898      1.13702132981886      1.27882773416336
| 19>   C          -0.31570717830351     -0.88770398481838      2.30089923544985
| 20>   C          -2.63637248272007     -1.36462687500533      1.85833866439033
| 21>   C          -3.70568397473616     -0.75626447658513     -0.36608612559490
| 22>   C           3.56938324679270     -0.50714909441101     -2.35395724800878
| 23>   C           3.67817704593287      1.01848006350993     -0.32347861158632
| 24>   C          -1.53912630466053     -1.39462462148548      2.71298164111527
| 25>   C           3.12881865403629      1.54884103487726      0.83426426195853
| 26>   C          -4.31020913734609     -2.09634865521682     -0.69523156597163
| 27>   C           2.83082875742748     -0.07479385458362     -3.59116519090887
| 28>   C          -5.58578578539434     -2.42733867036196     -0.51289691770483
| 29>   C           2.28171353132186     -0.89331904020005     -4.48098510636964
| 30>   H          -1.16641914323311      0.07467533195123     -0.81875685361673
| 31>   H           1.19018624469054     -1.08975313724116     -1.17439594548872
| 32>   H           0.52759667757493     -0.92094260607090      2.97894961221508
| 33>   H          -4.47881981321638     -0.10774577016177      0.05981107192748
| 34>   H          -3.37642707210039     -0.28067697246573     -1.29424733419251
| 35>   H           3.57973810074729     -1.60026272427748     -2.30666236935671
| 36>   H           4.61368621307688     -0.18682641781842     -2.43295188710070
| 37>   H           4.65837417861420      1.35187633612963     -0.64597834916141
| 38>   H          -1.65678356697302     -1.82447861023712      3.69945311570406
| 39>   H           3.65515036078652      2.30071745022616      1.40825797817405
| 40>   H          -3.62453582534693     -2.83350959990964     -1.10544444039156
| 41>   H           2.75047261188236      0.99976217377543     -3.73744825581044
| 42>   H           0.44185245175089      1.61624244512692      2.50692316259049
| 43>   H          -4.39753382998981     -2.11667037100236      1.61969015676610
| 44>   H          -5.96055055829128     -3.40890402558807     -0.77413616767786
| 45>   H          -6.30613515716538     -1.71867154765499     -0.11610353297016
| 46>   H           1.76336486154080     -0.51777755278348     -5.35466130923276
| 47>   H           2.33425689067462     -1.97135906034067     -4.36988909936325
| 48>   H          -5.16425865839553      2.56663299585035      4.23547698283221
| 49>   H          -4.23077069442860      1.07146301766924      5.89309643184704
| 50>   C          -4.66271924199479      1.69093195524065      3.82018131631111
| 51>   O          -2.55477971575207      1.31379601412417      4.71849651736824
| 52>   C          -2.41540178573838      1.94917212905984      3.53510894797928
| 53>   C          -3.91397205794698      0.86911137835734      4.87224940392221
| 54>   O          -3.61375460568297      2.13776474970511      2.94707679091828
| 55>   O          -1.37800238466255      2.30304209925413      3.06746589554026
| 56>   H          -5.36726217643843      1.09983789090688      3.23596793291158
| 57>   H          -3.95528756288356     -0.20132879431782      4.66993390818977
| 58> *
| 59>
| 60>                          ****END OF INPUT****
 Total Charge           Charge          ....    0
 Multiplicity           Mult            ....    1
 Number of Electrons    NEL             ....  188
FINAL SINGLE POINT ENERGY     -1189.348596471324
FINAL SINGLE POINT ENERGY     -1189.348666322305
FINAL SINGLE POINT ENERGY     -1189.348656786539
FINAL SINGLE POINT ENERGY     -1189.348713624828
FINAL SINGLE POINT ENERGY     -1189.348723430363
FINAL SINGLE POINT ENERGY     -1189.348732964842
FINAL SINGLE POINT ENERGY     -1189.348738604319
FINAL SINGLE POINT ENERGY     -1189.348746483938
FINAL SINGLE POINT ENERGY     -1189.348754293927
FINAL SINGLE POINT ENERGY     -1189.348763142527
FINAL SINGLE POINT ENERGY     -1189.348798745792
FINAL SINGLE POINT ENERGY     -1189.348800446834
FINAL SINGLE POINT ENERGY     -1189.348802498457
FINAL SINGLE POINT ENERGY     -1189.348804607444
FINAL SINGLE POINT ENERGY     -1189.348807632998
FINAL SINGLE POINT ENERGY     -1189.348811665701
FINAL SINGLE POINT ENERGY     -1189.348815414041
FINAL SINGLE POINT ENERGY     -1189.348819696814
FINAL SINGLE POINT ENERGY     -1189.348822204489
                    ***********************HURRAY********************

CARTESIAN COORDINATES (ANGSTROEM)
---------------------------------
  O      1.344968    1.750699    2.407022
  O     -3.839014   -1.866767    2.307627
  C      1.145292    0.173712    0.554081
  C     -0.167347   -0.359658    1.001966
  C     -2.522872   -0.839275    0.537940
  C     -1.278113   -0.342292    0.155908
  C      2.989708    0.098620   -1.055726
  C      1.739430   -0.322274   -0.609109
  C      1.830696    1.166763    1.280240
  C     -0.325940   -0.921820    2.272037
  C     -2.644056   -1.395381    1.819101
  C     -3.716424   -0.736759   -0.390484
  C      3.599123   -0.481751   -2.318160
  C      3.657492    1.059932   -0.298883
  C     -1.546593   -1.442525    2.672110
  C      3.086024    1.590555    0.847947
  C     -4.338277   -2.064585   -0.736961
  C      2.834468   -0.131660   -3.565158
  C     -5.620651   -2.376892   -0.569766
  C      2.329640   -1.007788   -4.425888
  H     -1.178120    0.103644   -0.827181
  H      1.208786   -1.084851   -1.168764
  H      0.517388   -0.961710    2.949591
  H     -4.480433   -0.083742    0.045752
  H     -3.385675   -0.252253   -1.313570
  H      3.673931   -1.570685   -2.237695
  H      4.623008   -0.104471   -2.411744
  H      4.636680    1.405626   -0.611410
  H     -1.664461   -1.894779    3.648680
  H      3.593532    2.354386    1.423168
  H     -3.660863   -2.808710   -1.148451
  H      2.694231    0.931481   -3.745772
  H      0.377859    1.685220    2.479464
  H     -4.417053   -2.120537    1.572773
  H     -6.008763   -3.349491   -0.844824
  H     -6.332954   -1.661395   -0.170760
  H      1.789614   -0.689998   -5.309288
  H      2.441902   -2.077051   -4.279944
  H     -5.082939    2.565234    4.454896
  H     -3.981207    1.019593    5.955629
  C     -4.654660    1.688975    3.965128
  O     -2.455818    1.307699    4.600757
  C     -2.456601    1.952980    3.416181
  C     -3.785068    0.846249    4.899871
  O     -3.719274    2.134157    2.969024
  O     -1.480076    2.324502    2.840091
  H     -5.439605    1.118123    3.474437
  H     -3.842585   -0.218969    4.674521

 Multiplicity           Mult            ....    1
 Number of Electrons    NEL             ....  188
 Basis Dimension        Dim             ....  938

ORBITAL ENERGIES
----------------

  NO   OCC          E(Eh)            E(eV)
   0   2.0000     -19.195370      -522.3326
   1   2.0000     -19.194643      -522.3128
   2   2.0000     -19.155106      -521.2369
   3   2.0000     -19.125449      -520.4299
   4   2.0000     -19.123251      -520.3701
   5   2.0000     -10.357222      -281.8343
   6   2.0000     -10.262187      -279.2483
   7   2.0000     -10.259659      -279.1795
   8   2.0000     -10.232980      -278.4536
   9   2.0000     -10.215968      -277.9906
  10   2.0000     -10.197062      -277.4762
  11   2.0000     -10.191619      -277.3281
  12   2.0000     -10.184194      -277.1260
  13   2.0000     -10.184109      -277.1237
  14   2.0000     -10.175565      -276.8912
  15   2.0000     -10.172348      -276.8036
  16   2.0000     -10.170811      -276.7618
  17   2.0000     -10.168793      -276.7069
  18   2.0000     -10.168027      -276.6861
  19   2.0000     -10.167279      -276.6657
  20   2.0000     -10.166690      -276.6497
  21   2.0000     -10.161871      -276.5186
  22   2.0000     -10.158277      -276.4208
  23   2.0000     -10.158014      -276.4136
  24   2.0000     -10.154149      -276.3085
  25   2.0000     -10.151247      -276.2295
  26   2.0000      -1.172220       -31.8977
  27   2.0000      -1.059930       -28.8422
  28   2.0000      -1.059798       -28.8386
  29   2.0000      -1.054970       -28.7072
  30   2.0000      -1.031850       -28.0781
  31   2.0000      -0.864398       -23.5215
  32   2.0000      -0.843208       -22.9449
  33   2.0000      -0.818653       -22.2767
  34   2.0000      -0.796497       -21.6738
  35   2.0000      -0.790832       -21.5196
  36   2.0000      -0.767802       -20.8929
  37   2.0000      -0.759132       -20.6570
  38   2.0000      -0.732611       -19.9354
  39   2.0000      -0.714702       -19.4480
  40   2.0000      -0.693157       -18.8618
  41   2.0000      -0.692116       -18.8334
  42   2.0000      -0.666991       -18.1497
  43   2.0000      -0.625923       -17.0322
  44   2.0000      -0.620903       -16.8956
  45   2.0000      -0.614509       -16.7216
  46   2.0000      -0.587720       -15.9927
  47   2.0000      -0.580416       -15.7939
  48   2.0000      -0.574273       -15.6268
  49   2.0000      -0.557065       -15.1585
  50   2.0000      -0.548128       -14.9153
  51   2.0000      -0.543333       -14.7849
  52   2.0000      -0.535780       -14.5793
  53   2.0000      -0.526828       -14.3357
  54   2.0000      -0.519244       -14.1293
  55   2.0000      -0.493810       -13.4372
  56   2.0000      -0.485055       -13.1990
  57   2.0000      -0.476682       -12.9712
  58   2.0000      -0.468789       -12.7564
  59   2.0000      -0.460908       -12.5419
  60   2.0000      -0.457336       -12.4447
  61   2.0000      -0.454383       -12.3644
  62   2.0000      -0.453796       -12.3484
  63   2.0000      -0.452218       -12.3055
  64   2.0000      -0.439384       -11.9563
  65   2.0000      -0.427054       -11.6207
  66   2.0000      -0.423940       -11.5360
  67   2.0000      -0.418904       -11.3990
  68   2.0000      -0.415146       -11.2967
  69   2.0000      -0.412930       -11.2364
  70   2.0000      -0.400184       -10.8896
  71   2.0000      -0.394803       -10.7431
  72   2.0000      -0.393474       -10.7070
  73   2.0000      -0.393137       -10.6978
  74   2.0000      -0.390469       -10.6252
  75   2.0000      -0.379572       -10.3287
  76   2.0000      -0.372323       -10.1314
  77   2.0000      -0.365327        -9.9410
  78   2.0000      -0.354123        -9.6362
  79   2.0000      -0.349257        -9.5038
  80   2.0000      -0.347612        -9.4590
  81   2.0000      -0.340966        -9.2782
  82   2.0000      -0.332611        -9.0508
  83   2.0000      -0.327209        -8.9038
  84   2.0000      -0.325685        -8.8623
  85   2.0000      -0.321311        -8.7433
  86   2.0000      -0.315169        -8.5762
  87   2.0000      -0.305821        -8.3218
  88   2.0000      -0.286193        -7.7877
  89   2.0000      -0.257934        -7.0188
  90   2.0000      -0.253040        -6.8856
  91   2.0000      -0.250346        -6.8123
  92   2.0000      -0.222467        -6.0536
  93   2.0000      -0.201589        -5.4855
  94   0.0000      -0.026559        -0.7227
  95   0.0000      -0.016907        -0.4601
  96   0.0000      -0.004949        -0.1347
  97   0.0000       0.007869         0.2141
  98   0.0000       0.009106         0.2478

MULLIKEN ATOMIC CHARGES
-----------------------
   0 O :   -0.407981
   1 O :   -0.436340
   2 C :    0.104402
   3 C :    0.062335
   4 C :    0.093722
   5 C :   -0.238138
   6 C :    0.129292
   7 C :   -0.257206
   8 C :    0.222897
   9 C :   -0.159844
  10 C :    0.259897
  11 C :   -0.257175
  12 C :   -0.195754
  13 C :   -0.136596
  14 C :   -0.238056
  15 C :   -0.230214
  16 C :   -0.135599
  17 C :   -0.085764
  18 C :   -0.272344
  19 C :   -0.266352
  20 H :    0.117020
  21 H :    0.113410
  22 H :    0.117058
  23 H :    0.125808
  24 H :    0.118950
  25 H :    0.099717
  26 H :    0.103794
  27 H :    0.090567
  28 H :    0.104229
  29 H :    0.100814
  30 H :    0.118356
  31 H :    0.101159
  32 H :    0.332419
  33 H :    0.322680
  34 H :    0.124256
  35 H :    0.118612
  36 H :    0.106543
  37 H :    0.098786
  38 H :    0.113420
  39 H :    0.122542
  40 C :   -0.018135
  41 O :   -0.254649
  42 C :    0.444682
  43 C :   -0.031169
  44 O :   -0.259775
  45 O :   -0.331286
  46 H :    0.115675
  47 H :    0.129338
Sum of atomic charges:   -0.0000000

LOEWDIN ATOMIC CHARGES
----------------------
   0 O :    0.093321
   1 O :    0.066650
   2 C :   -0.093016
   3 C :   -0.114339
   4 C :   -0.131940
   5 C :   -0.069726
   6 C :   -0.153315
   7 C :   -0.072691
   8 C :   -0.235679
   9 C :   -0.097571
  10 C :   -0.244553
  11 C :   -0.201303
  12 C :   -0.201629
  13 C :   -0.119763
  14 C :   -0.124726
  15 C :   -0.119268
  16 C :   -0.193682
  17 C :   -0.186724
  18 C :   -0.220961
  19 C :   -0.223994
  20 H :    0.152414
  21 H :    0.151809
  22 H :    0.153192
  23 H :    0.148601
  24 H :    0.154354
  25 H :    0.144881
  26 H :    0.146581
  27 H :    0.142322
  28 H :    0.146704
  29 H :    0.146521
  30 H :    0.144601
  31 H :    0.139341
  32 H :    0.180191
  33 H :    0.181039
  34 H :    0.123241
  35 H :    0.121312
  36 H :    0.117917
  37 H :    0.117175
  38 H :    0.126140
  39 H :    0.129065
  40 C :   -0.258598
  41 O :    0.264396
  42 C :   -0.605442
  43 C :   -0.256992
  44 O :    0.261147
  45 O :    0.113152
  46 H :    0.129938
  47 H :    0.129905

  Mayer bond orders larger than 0.100000
B(  0-O ,  8-C ) :   1.1387 B(  0-O , 32-H ) :   0.8381 B(  1-O , 10-C ) :   1.0364
B(  1-O , 33-H ) :   0.8612 B(  2-C ,  3-C ) :   0.8617 B(  2-C ,  7-C ) :   1.3004
B(  2-C ,  8-C ) :   1.2483 B(  3-C ,  5-C ) :   1.4250 B(  3-C ,  9-C ) :   1.3514
B(  4-C ,  5-C ) :   1.3521 B(  4-C , 10-C ) :   1.2845 B(  4-C , 11-C ) :   0.9038
B(  5-C , 20-H ) :   0.9545 B(  6-C ,  7-C ) :   1.3871 B(  6-C , 12-C ) :   0.9107
B(  6-C , 13-C ) :   1.3630 B(  7-C , 21-H ) :   0.9717 B(  8-C , 15-C ) :   1.4224
B(  9-C , 14-C ) :   1.3945 B(  9-C , 22-H ) :   0.9896 B( 10-C , 14-C ) :   1.3748
B( 11-C , 16-C ) :   0.9557 B( 11-C , 23-H ) :   0.9805 B( 11-C , 24-H ) :   0.9660
B( 12-C , 17-C ) :   0.9675 B( 12-C , 25-H ) :   0.9657 B( 12-C , 26-H ) :   0.9727
B( 13-C , 15-C ) :   1.4238 B( 13-C , 27-H ) :   0.9787 B( 14-C , 28-H ) :   0.9934
B( 15-C , 29-H ) :   0.9832 B( 16-C , 18-C ) :   1.8898 B( 16-C , 30-H ) :   0.9561
B( 17-C , 19-C ) :   1.9259 B( 17-C , 31-H ) :   0.9549 B( 18-C , 34-H ) :   0.9674
B( 18-C , 35-H ) :   0.9646 B( 19-C , 36-H ) :   0.9661 B( 19-C , 37-H ) :   0.9624
B( 38-H , 40-C ) :   0.9620 B( 39-H , 43-C ) :   0.9603 B( 40-C , 43-C ) :   0.9892
B( 40-C , 44-O ) :   0.9258 B( 40-C , 46-H ) :   0.9588 B( 41-O , 42-C ) :   1.1603
B( 41-O , 43-C ) :   0.9271 B( 42-C , 44-O ) :   1.1497 B( 42-C , 45-O ) :   2.0034
B( 43-C , 47-H ) :   0.9530

FINAL SINGLE POINT ENERGY     -1189.348822656476

DIPOLE MOMENT
-------------

Method             : SCF
Type of density    : Electron Density
Multiplicity       :   1
Irrep              :   0
Energy             : -1189.3488226564763863 Eh
Relativity type    :
Basis              : AO
                                X                 Y                 Z
Electronic contribution:      2.165591056       8.576582649      15.247468368
Nuclear contribution   :     -4.778427685      -9.267079488     -14.743401936
                        -----------------------------------------
Total Dipole Moment    :     -2.612836630      -0.690496838       0.504066431
                        -----------------------------------------
Magnitude (a.u.)       :      2.749142431
Magnitude (Debye)      :      6.987764732

Rotational constants in cm-1:             0.009338             0.004131             0.003151
Rotational constants in MHz :           279.941052           123.851766            94.450563

                             ****ORCA TERMINATED NORMALLY****
TOTAL RUN TIME: 0 days 0 hours 24 minutes 50 seconds 655 msec
