                         Program Version 6.0.1  -  RELEASE   -
|  1> ! OPT B3LYP def2-TZVP TightSCF D3BJ RIJCOSX
|  2>
|  3> %maxcore 5000
|  4>
|  5> %pal
|  6> nprocs 25
|  7> end
|  8>
|  9> * xyz 0 1
| 10> O           1.92382131859358      1.13228024120784      2.83747870816716
| 11>   O          -3.65176515159140     -1.88629870294520      2.12389821659310
| 12>   C           1.42210446289138      0.14064576722909      0.66328345329402
| 13>   C           0.09300036593619     -0.37978357349253      1.05436822287724
| 14>   C          -2.26178678851645     -0.72270409272521      0.50826895428764
| 15>   C          -0.99844362577852     -0.23755816105561      0.19702450721935
| 16>   C           3.12608879756286      0.35741615883148     -1.08235059901315
| 17>   C           1.87471952710426     -0.05715486481544     -0.64484659088947
| 18>   C           2.26881008956229      0.81977555857230      1.55756689804220
| 19>   C          -0.10700931659062     -1.06450277614176      2.25534779546197
| 20>   C          -2.42769891948714     -1.41018615785492      1.71565861008259
| 21>   C          -3.42352345182427     -0.47855562808363     -0.42764456456093
| 22>   C           3.58252582228203      0.10387163680356     -2.50453655468285
| 23>   C           3.96070930223294      0.98482112097065     -0.15987051310871
| 24>   C          -1.35160193429837     -1.58209159260954      2.57747400508381
| 25>   C           3.53811074481516      1.21361668319706      1.13984600352640
| 26>   C          -4.05946674163592     -1.74976028639074     -0.91641038320809
| 27>   C           2.48402180704970      0.22406730683514     -3.51837610828423
| 28>   C          -5.33865054056612     -2.07574048374930     -0.75441339590491
| 29>   C           2.11447809433294     -0.74268162369312     -4.34844266178163
| 30>   H          -0.87826111263066      0.29925092429714     -0.73243299168394
| 31>   H           1.22449454616572     -0.57130578292423     -1.34053035967418
| 32>   H           0.71966565921153     -1.20612675248638      2.93764704047786
| 33>   H          -4.18369778099977      0.14104352459399      0.06042312961361
| 34>   H          -3.05387408092339      0.09449853978057     -1.28115149228409
| 35>   H           4.03697777776301     -0.89002713011561     -2.57802446864610
| 36>   H           4.37406838873392      0.82294208982412     -2.74101493732459
| 37>   H           4.94780328792553      1.31312378846372     -0.46449575406701
| 38>   H          -1.50215927020272     -2.13183025221169      3.49737191045774
| 39>   H           4.17127374717691      1.72911972356202      1.85040764424545
| 40>   H          -3.39162730420078     -2.44408787676017     -1.41891797989879
| 41>   H           1.95515182714341      1.17199823877478     -3.53528964886559
| 42>   H           0.96363054517507      1.26608383986226      2.92387844411783
| 43>   H          -4.19754607006195     -2.08091594575992      1.34609032913546
| 44>   H          -5.73915859163418     -3.01033835266600     -1.12531349932107
| 45>   H          -6.03628057530860     -1.40324433266943     -0.26509872392775
| 46>   H           1.30827476505078     -0.60024903276984     -5.05677875362397
| 47>   H           2.60454213635974     -1.71081210894613     -4.34719122531690
| 48>   H          -4.43527850371538      0.62928834657748      2.48904527117072
| 49>   H          -3.41706074583109     -0.45175597967211      4.32344508084313
| 50>   O          -2.02250459425373      1.06332439279849      4.40389916170972
| 51>   C          -3.39442305793670      0.63149511769226      4.41623586927957
| 52>   C          -4.00469865313756      1.33440161236282      3.19515392136137
| 53>   C          -1.76793385175840      1.77227626630462      3.29492070313095
| 54>   O          -0.68528725478562      2.19000931656341      2.99488218749213
| 55>   O          -2.87856431092470      1.97399080530327      2.57057467183345
| 56>   H          -4.73155920319687      2.10253675040749      3.45522664325658
| 57>   H          -3.83840592362660      0.93906659500838      5.36080609054402
| 58>   H           1.90436799035711      4.75559539233059     -0.78424433780465
| 59>   H           2.20874579889867      3.12127666491977     -0.13499912507335
| 60>   C           1.47665638711475      3.77057127938188     -0.61097976389412
| 61>   H          -0.32675060698629      4.79281482912242      0.11641480531801
| 62>   C           0.14580583652022      3.80967782594472      0.14364700819104
| 63>   H           0.21119257919216      3.45620987080609      1.16850099648237
| 64>   O           1.11554159404138      3.20127954179499     -1.88358014690482
| 65>   O          -0.67505235255867      2.89581767037690     -0.60350587512508
| 66>   C          -0.09284227537813      2.61013057789361     -1.78554794329873
| 67>   O          -0.58495541975257      1.92082141034346     -2.62756449952782
| 68> *
| 69>
| 70>                          ****END OF INPUT****
 Total Charge           Charge          ....    0
 Multiplicity           Mult            ....    1
 Number of Electrons    NEL             ....  234
Dispersion correction           -0.134302216
FINAL SINGLE POINT ENERGY     -1531.858707301475
Dispersion correction             ... done (  0.0 sec)
Dispersion correction           -0.134351912
FINAL SINGLE POINT ENERGY     -1531.858712549155
Dispersion correction             ... done (  0.0 sec)
Dispersion correction           -0.133983937
FINAL SINGLE POINT ENERGY     -1531.858686096291
Dispersion correction             ... done (  0.0 sec)
Dispersion correction           -0.134264764
FINAL SINGLE POINT ENERGY     -1531.858724431239
Dispersion correction             ... done (  0.0 sec)
Dispersion correction           -0.134283863
FINAL SINGLE POINT ENERGY     -1531.858726475918
Dispersion correction             ... done (  0.0 sec)
                    ***********************HURRAY********************

CARTESIAN COORDINATES (ANGSTROEM)
---------------------------------
  O      1.920059    1.129194    2.838944
  O     -3.652871   -1.890897    2.118240
  C      1.419603    0.142689    0.662296
  C      0.090005   -0.377778    1.051759
  C     -2.264502   -0.721416    0.505444
  C     -1.001657   -0.233940    0.195125
  C      3.126728    0.359691   -1.080197
  C      1.874220   -0.054312   -0.645045
  C      2.265171    0.820637    1.558543
  C     -0.109234   -1.065196    2.251413
  C     -2.429579   -1.411778    1.711190
  C     -3.426562   -0.476930   -0.429846
  C      3.584998    0.104482   -2.501639
  C      3.959907    0.987364   -0.156568
  C     -1.353234   -1.584797    2.572499
  C      3.534631    1.215783    1.142353
  C     -4.064095   -1.747655   -0.917729
  C      2.485550    0.215795   -3.515415
  C     -5.343570   -2.072045   -0.754810
  C      2.115898   -0.757664   -4.337539
  H     -0.882162    0.302041   -0.735035
  H      1.224996   -0.567870   -1.342062
  H      0.717932   -1.207941    2.932841
  H     -4.185934    0.143706    0.058221
  H     -3.057034    0.095368   -1.283946
  H      4.044352   -0.887377   -2.572093
  H      4.372794    0.826809   -2.740537
  H      4.947658    1.315414   -0.459270
  H     -1.502890   -2.137524    3.490765
  H      4.165055    1.731134    1.855393
  H     -3.397389   -2.442939   -1.420422
  H      1.955626    1.162970   -3.538554
  H      0.960476    1.267882    2.926187
  H     -4.198624   -2.084079    1.340082
  H     -5.745475   -3.006214   -1.125289
  H     -6.040029   -1.398623   -0.265101
  H      1.308496   -0.621583   -5.045779
  H      2.607231   -1.725111   -4.329804
  H     -4.429381    0.630295    2.487732
  H     -3.399925   -0.458713    4.314099
  O     -2.012625    1.062833    4.404135
  C     -3.382008    0.624058    4.413181
  C     -3.994839    1.331097    3.195711
  C     -1.759944    1.775347    3.297002
  O     -0.678932    2.199831    2.999696
  O     -2.869913    1.971822    2.570972
  H     -4.720844    2.098692    3.460387
  H     -3.828973    0.924476    5.358607
  H      1.903496    4.759780   -0.789828
  H      2.206541    3.126691   -0.137674
  C      1.473879    3.776326   -0.612494
  H     -0.330582    4.798219    0.116996
  C      0.144693    3.816372    0.143685
  H      0.207350    3.461062    1.167962
  O      1.110873    3.206486   -1.884469
  O     -0.677990    2.901831   -0.602386
  C     -0.098126    2.615883   -1.785040
  O     -0.590579    1.927747   -2.627658

 Multiplicity           Mult            ....    1
 Number of Electrons    NEL             ....  234
 Basis Dimension        Dim             .... 1148

ORBITAL ENERGIES
----------------

  NO   OCC          E(Eh)            E(eV)
   0   2.0000     -19.200603      -522.4750
   1   2.0000     -19.200140      -522.4624
   2   2.0000     -19.177582      -521.8485
   3   2.0000     -19.176880      -521.8294
   4   2.0000     -19.155983      -521.2608
   5   2.0000     -19.132409      -520.6193
   6   2.0000     -19.127858      -520.4955
   7   2.0000     -19.107413      -519.9391
   8   2.0000     -10.365130      -282.0495
   9   2.0000     -10.338612      -281.3279
  10   2.0000     -10.262548      -279.2581
  11   2.0000     -10.260808      -279.2108
  12   2.0000     -10.238528      -278.6045
  13   2.0000     -10.237361      -278.5728
  14   2.0000     -10.232547      -278.4418
  15   2.0000     -10.221284      -278.1353
  16   2.0000     -10.194577      -277.4085
  17   2.0000     -10.186813      -277.1973
  18   2.0000     -10.181785      -277.0605
  19   2.0000     -10.181649      -277.0568
  20   2.0000     -10.176146      -276.9070
  21   2.0000     -10.173378      -276.8317
  22   2.0000     -10.171296      -276.7750
  23   2.0000     -10.169997      -276.7397
  24   2.0000     -10.167152      -276.6623
  25   2.0000     -10.166197      -276.6363
  26   2.0000     -10.164228      -276.5827
  27   2.0000     -10.163519      -276.5634
  28   2.0000     -10.159802      -276.4623
  29   2.0000     -10.158912      -276.4380
  30   2.0000     -10.156619      -276.3756
  31   2.0000     -10.145832      -276.0821
  32   2.0000      -1.180164       -32.1139
  33   2.0000      -1.154880       -31.4259
  34   2.0000      -1.067467       -29.0473
  35   2.0000      -1.061512       -28.8852
  36   2.0000      -1.060917       -28.8690
  37   2.0000      -1.042427       -28.3659
  38   2.0000      -1.037495       -28.2317
  39   2.0000      -1.036267       -28.1983
  40   2.0000      -0.867125       -23.5957
  41   2.0000      -0.848412       -23.0865
  42   2.0000      -0.818249       -22.2657
  43   2.0000      -0.799680       -21.7604
  44   2.0000      -0.789701       -21.4889
  45   2.0000      -0.776137       -21.1198
  46   2.0000      -0.770812       -20.9749
  47   2.0000      -0.759778       -20.6746
  48   2.0000      -0.732981       -19.9454
  49   2.0000      -0.717640       -19.5280
  50   2.0000      -0.699043       -19.0219
  51   2.0000      -0.691079       -18.8052
  52   2.0000      -0.674067       -18.3423
  53   2.0000      -0.666639       -18.1402
  54   2.0000      -0.629516       -17.1300
  55   2.0000      -0.626721       -17.0539
  56   2.0000      -0.616005       -16.7624
  57   2.0000      -0.602060       -16.3829
  58   2.0000      -0.590741       -16.0749
  59   2.0000      -0.582283       -15.8447
  60   2.0000      -0.573727       -15.6119
  61   2.0000      -0.558465       -15.1966
  62   2.0000      -0.547619       -14.9015
  63   2.0000      -0.540910       -14.7189
  64   2.0000      -0.539848       -14.6900
  65   2.0000      -0.536772       -14.6063
  66   2.0000      -0.529799       -14.4166
  67   2.0000      -0.525268       -14.2933
  68   2.0000      -0.513334       -13.9685
  69   2.0000      -0.500752       -13.6262
  70   2.0000      -0.493168       -13.4198
  71   2.0000      -0.487246       -13.2586
  72   2.0000      -0.478978       -13.0336
  73   2.0000      -0.470318       -12.7980
  74   2.0000      -0.464852       -12.6493
  75   2.0000      -0.463517       -12.6129
  76   2.0000      -0.458566       -12.4782
  77   2.0000      -0.453782       -12.3480
  78   2.0000      -0.451531       -12.2868
  79   2.0000      -0.443848       -12.0777
  80   2.0000      -0.439086       -11.9481
  81   2.0000      -0.434205       -11.8153
  82   2.0000      -0.433261       -11.7896
  83   2.0000      -0.428313       -11.6550
  84   2.0000      -0.423499       -11.5240
  85   2.0000      -0.418098       -11.3770
  86   2.0000      -0.416748       -11.3403
  87   2.0000      -0.413521       -11.2525
  88   2.0000      -0.402882       -10.9630
  89   2.0000      -0.399497       -10.8709
  90   2.0000      -0.398437       -10.8420
  91   2.0000      -0.395835       -10.7712
  92   2.0000      -0.390056       -10.6140
  93   2.0000      -0.377751       -10.2791
  94   2.0000      -0.376792       -10.2530
  95   2.0000      -0.374215       -10.1829
  96   2.0000      -0.371108       -10.0984
  97   2.0000      -0.364580        -9.9207
  98   2.0000      -0.359657        -9.7868
  99   2.0000      -0.352352        -9.5880
 100   2.0000      -0.346962        -9.4413
 101   2.0000      -0.336638        -9.1604
 102   2.0000      -0.334888        -9.1128
 103   2.0000      -0.331440        -9.0190
 104   2.0000      -0.327930        -8.9234
 105   2.0000      -0.325916        -8.8686
 106   2.0000      -0.322418        -8.7734
 107   2.0000      -0.309540        -8.4230
 108   2.0000      -0.307948        -8.3797
 109   2.0000      -0.305036        -8.3005
 110   2.0000      -0.296335        -8.0637
 111   2.0000      -0.283822        -7.7232
 112   2.0000      -0.260876        -7.0988
 113   2.0000      -0.252527        -6.8716
 114   2.0000      -0.250365        -6.8128
 115   2.0000      -0.226173        -6.1545
 116   2.0000      -0.205067        -5.5802
 117   0.0000      -0.026551        -0.7225
 118   0.0000      -0.023987        -0.6527
 119   0.0000      -0.002660        -0.0724
 120   0.0000       0.003362         0.0915
 121   0.0000       0.009985         0.2717

MULLIKEN ATOMIC CHARGES
-----------------------
   0 O :   -0.419053
   1 O :   -0.436776
   2 C :    0.102317
   3 C :    0.058132
   4 C :    0.009336
   5 C :   -0.184791
   6 C :    0.110418
   7 C :   -0.262360
   8 C :    0.192829
   9 C :   -0.188887
  10 C :    0.268918
  11 C :   -0.269289
  12 C :   -0.163952
  13 C :   -0.154742
  14 C :   -0.261488
  15 C :   -0.255683
  16 C :   -0.122972
  17 C :   -0.105627
  18 C :   -0.283467
  19 C :   -0.270770
  20 H :    0.186827
  21 H :    0.160202
  22 H :    0.122018
  23 H :    0.108096
  24 H :    0.150156
  25 H :    0.088562
  26 H :    0.102919
  27 H :    0.090775
  28 H :    0.106008
  29 H :    0.098826
  30 H :    0.119990
  31 H :    0.133642
  32 H :    0.332285
  33 H :    0.325936
  34 H :    0.124455
  35 H :    0.118733
  36 H :    0.112699
  37 H :    0.095893
  38 H :    0.109955
  39 H :    0.133258
  40 O :   -0.250824
  41 C :   -0.024405
  42 C :   -0.021649
  43 C :    0.492680
  44 O :   -0.385989
  45 O :   -0.253741
  46 H :    0.120909
  47 H :    0.121857
  48 H :    0.108882
  49 H :    0.140086
  50 C :   -0.013194
  51 H :    0.103085
  52 C :   -0.029558
  53 H :    0.150615
  54 O :   -0.267986
  55 O :   -0.267933
  56 C :    0.408817
  57 O :   -0.314979
Sum of atomic charges:   -0.0000000

LOEWDIN ATOMIC CHARGES
----------------------
   0 O :    0.086023
   1 O :    0.066038
   2 C :   -0.095144
   3 C :   -0.113990
   4 C :   -0.134903
   5 C :   -0.061104
   6 C :   -0.152049
   7 C :   -0.068220
   8 C :   -0.249709
   9 C :   -0.101637
  10 C :   -0.253263
  11 C :   -0.197444
  12 C :   -0.197976
  13 C :   -0.125455
  14 C :   -0.129351
  15 C :   -0.133017
  16 C :   -0.188170
  17 C :   -0.188942
  18 C :   -0.224264
  19 C :   -0.219539
  20 H :    0.158933
  21 H :    0.159904
  22 H :    0.153303
  23 H :    0.144222
  24 H :    0.162238
  25 H :    0.146370
  26 H :    0.147461
  27 H :    0.143135
  28 H :    0.147065
  29 H :    0.146477
  30 H :    0.145991
  31 H :    0.145855
  32 H :    0.175197
  33 H :    0.180893
  34 H :    0.123090
  35 H :    0.120763
  36 H :    0.120163
  37 H :    0.116006
  38 H :    0.126151
  39 H :    0.131800
  40 O :    0.277090
  41 C :   -0.250557
  42 C :   -0.252314
  43 C :   -0.613278
  44 O :    0.095674
  45 O :    0.278803
  46 H :    0.125868
  47 H :    0.127107
  48 H :    0.126040
  49 H :    0.135328
  50 C :   -0.254937
  51 H :    0.123061
  52 C :   -0.257652
  53 H :    0.133430
  54 O :    0.259107
  55 O :    0.265465
  56 C :   -0.634660
  57 O :    0.103525

  Mayer bond orders larger than 0.100000
B(  0-O ,  8-C ) :   1.0930 B(  0-O , 32-H ) :   0.8331 B(  1-O , 10-C ) :   1.0213
B(  1-O , 33-H ) :   0.8535 B(  2-C ,  3-C ) :   0.8478 B(  2-C ,  7-C ) :   1.2722
B(  2-C ,  8-C ) :   1.2394 B(  3-C ,  5-C ) :   1.3693 B(  3-C ,  9-C ) :   1.3552
B(  4-C ,  5-C ) :   1.3986 B(  4-C , 10-C ) :   1.2355 B(  4-C , 11-C ) :   0.8962
B(  5-C , 20-H ) :   0.9072 B(  6-C ,  7-C ) :   1.3963 B(  6-C , 12-C ) :   0.9463
B(  6-C , 13-C ) :   1.3155 B(  7-C , 21-H ) :   0.9562 B(  8-C , 15-C ) :   1.4275
B(  9-C , 14-C ) :   1.4013 B(  9-C , 22-H ) :   0.9975 B( 10-C , 14-C ) :   1.3827
B( 11-C , 16-C ) :   0.9589 B( 11-C , 23-H ) :   0.9714 B( 11-C , 24-H ) :   0.9751
B( 12-C , 17-C ) :   0.9935 B( 12-C , 25-H ) :   0.9459 B( 12-C , 26-H ) :   0.9758
B( 13-C , 15-C ) :   1.4183 B( 13-C , 27-H ) :   1.0011 B( 14-C , 28-H ) :   0.9999
B( 15-C , 29-H ) :   1.0065 B( 16-C , 18-C ) :   1.8769 B( 16-C , 30-H ) :   0.9569
B( 17-C , 19-C ) :   1.9379 B( 17-C , 31-H ) :   0.9375 B( 18-C , 34-H ) :   0.9686
B( 18-C , 35-H ) :   0.9650 B( 19-C , 36-H ) :   0.9659 B( 19-C , 37-H ) :   0.9629
B( 38-H , 42-C ) :   0.9519 B( 39-H , 41-C ) :   0.9522 B( 40-O , 41-C ) :   0.9141
B( 40-O , 43-C ) :   1.1879 B( 41-C , 42-C ) :   0.9926 B( 41-C , 47-H ) :   0.9618
B( 42-C , 45-O ) :   0.9159 B( 42-C , 46-H ) :   0.9618 B( 43-C , 44-O ) :   1.9050
B( 43-C , 45-O ) :   1.1746 B( 48-H , 50-C ) :   0.9620 B( 49-H , 50-C ) :   0.9612
B( 50-C , 52-C ) :   0.9854 B( 50-C , 54-O ) :   0.9165 B( 51-H , 52-C ) :   0.9667
B( 52-C , 53-H ) :   0.9500 B( 52-C , 55-O ) :   0.9024 B( 54-O , 56-C ) :   1.1533
B( 55-O , 56-C ) :   1.1590 B( 56-C , 57-O ) :   2.0605

Dispersion correction           -0.134264929
FINAL SINGLE POINT ENERGY     -1531.858729137445

DIPOLE MOMENT
-------------

Method             : SCF
Type of density    : Electron Density
Multiplicity       :   1
Irrep              :   0
Energy             : -1531.7244642085704527 Eh
Relativity type    :
Basis              : AO
                                X                 Y                 Z
Electronic contribution:      2.794316008       7.275969168      10.527073446
Nuclear contribution   :     -4.729189763      -6.829233389      -9.238349179
                        -----------------------------------------
Total Dipole Moment    :     -1.934873754       0.446735779       1.288724267
                        -----------------------------------------
Magnitude (a.u.)       :      2.367302164
Magnitude (Debye)      :      6.017203907

Rotational constants in cm-1:             0.006485             0.003615             0.003136
Rotational constants in MHz :           194.410250           108.380592            94.003038

                             ****ORCA TERMINATED NORMALLY****
TOTAL RUN TIME: 0 days 0 hours 8 minutes 30 seconds 989 msec
