                         Program Version 6.0.1  -  RELEASE   -
|  1> ! Opt B3LYP def2-TZVP TightSCF TightOpt
|  2>
|  3> %maxcore 5000
|  4>
|  5> %pal
|  6> nprocs 20
|  7> end
|  8>
|  9> * xyz 0 1
| 10> O          0.68030       -0.45370        0.00050
| 11> O         -1.49990       -0.77980        0.00030
| 12> O         -0.70930        1.38540        0.00010
| 13> C          1.82450        0.40650       -0.00030
| 14> C          3.07860       -0.44140       -0.00030
| 15> C         -0.52830        0.17520        0.00060
| 16> C         -2.84580       -0.29220       -0.00070
| 17> H          1.80520        1.03900       -0.89490
| 18> H          1.80570        1.03980        0.89370
| 19> H          3.97460        0.18570       -0.00090
| 20> H          3.10340       -1.09290        0.87950
| 21> H          3.10290       -1.09360       -0.87950
| 22> H         -3.03430        0.30100        0.89920
| 23> H         -3.51930       -1.15330       -0.00080
| 24> H         -3.03320        0.30050       -0.90120
| 25> *
| 26>
| 27>                          ****END OF INPUT****
 Total Charge           Charge          ....    0
 Multiplicity           Mult            ....    1
 Number of Electrons    NEL             ....   56
FINAL SINGLE POINT ENERGY      -382.881049657998
FINAL SINGLE POINT ENERGY      -382.883597600980
FINAL SINGLE POINT ENERGY      -382.883854204964
FINAL SINGLE POINT ENERGY      -382.883818072541
FINAL SINGLE POINT ENERGY      -382.883921783241
FINAL SINGLE POINT ENERGY      -382.883925710863
FINAL SINGLE POINT ENERGY      -382.883926198106
FINAL SINGLE POINT ENERGY      -382.883926339429
                    ***********************HURRAY********************

CARTESIAN COORDINATES (ANGSTROEM)
---------------------------------
  O      0.665807   -0.450759    0.000077
  O     -1.472653   -0.779168    0.000039
  O     -0.707377    1.352430   -0.001057
  C      1.821189    0.419707   -0.000219
  C      3.051537   -0.458230   -0.000204
  C     -0.520821    0.161807   -0.000393
  C     -2.820364   -0.284554   -0.000398
  H      1.775900    1.060332   -0.882441
  H      1.776151    1.060593    0.881833
  H      3.946320    0.167318    0.000212
  H      3.077536   -1.095662    0.884709
  H      3.077985   -1.095284   -0.885368
  H     -3.007246    0.318924    0.887458
  H     -3.451763   -1.168998    0.000136
  H     -3.007101    0.317745   -0.889085

 Multiplicity           Mult            ....    1
 Number of Electrons    NEL             ....   56
 Basis Dimension        Dim             ....  265

ORBITAL ENERGIES
----------------

  NO   OCC          E(Eh)            E(eV)
   0   2.0000     -19.173695      -521.7428
   1   2.0000     -19.171725      -521.6892
   2   2.0000     -19.108964      -519.9813
   3   2.0000     -10.338663      -281.3293
   4   2.0000     -10.231435      -278.4115
   5   2.0000     -10.226643      -278.2811
   6   2.0000     -10.170340      -276.7490
   7   2.0000      -1.142380       -31.0857
   8   2.0000      -1.055958       -28.7341
   9   2.0000      -1.020228       -27.7618
  10   2.0000      -0.785876       -21.3848
  11   2.0000      -0.727118       -19.7859
  12   2.0000      -0.642095       -17.4723
  13   2.0000      -0.578561       -15.7435
  14   2.0000      -0.548924       -14.9370
  15   2.0000      -0.513314       -13.9680
  16   2.0000      -0.488014       -13.2795
  17   2.0000      -0.474456       -12.9106
  18   2.0000      -0.445636       -12.1264
  19   2.0000      -0.423061       -11.5121
  20   2.0000      -0.420712       -11.4482
  21   2.0000      -0.398559       -10.8453
  22   2.0000      -0.374136       -10.1808
  23   2.0000      -0.370758       -10.0888
  24   2.0000      -0.359227        -9.7751
  25   2.0000      -0.313020        -8.5177
  26   2.0000      -0.307646        -8.3715
  27   2.0000      -0.292298        -7.9538
  28   0.0000       0.035139         0.9562
  29   0.0000       0.036496         0.9931
  30   0.0000       0.052931         1.4403
  31   0.0000       0.067408         1.8343
  32   0.0000       0.086110         2.3432

MULLIKEN ATOMIC CHARGES
-----------------------
   0 O :   -0.261366
   1 O :   -0.266919
   2 O :   -0.361493
   3 C :   -0.019464
   4 C :   -0.294557
   5 C :    0.436186
   6 C :   -0.155591
   7 H :    0.107329
   8 H :    0.107301
   9 H :    0.107546
  10 H :    0.112852
  11 H :    0.112841
  12 H :    0.124688
  13 H :    0.125965
  14 H :    0.124681
Sum of atomic charges:    0.0000000

LOEWDIN ATOMIC CHARGES
----------------------
   0 O :    0.257641
   1 O :    0.237576
   2 O :    0.079739
   3 C :   -0.291803
   4 C :   -0.302078
   5 C :   -0.640500
   6 C :   -0.294984
   7 H :    0.125798
   8 H :    0.125793
   9 H :    0.125116
  10 H :    0.121935
  11 H :    0.121922
  12 H :    0.110828
  13 H :    0.112189
  14 H :    0.110827

  Mayer bond orders larger than 0.100000
B(  0-O ,  3-C ) :   0.8679 B(  0-O ,  5-C ) :   1.2172 B(  1-O ,  5-C ) :   1.2055
B(  1-O ,  6-C ) :   0.8954 B(  2-O ,  5-C ) :   1.9532 B(  3-C ,  4-C ) :   0.9811
B(  3-C ,  7-H ) :   0.9685 B(  3-C ,  8-H ) :   0.9685 B(  4-C ,  9-H ) :   0.9677
B(  4-C , 10-H ) :   0.9704 B(  4-C , 11-H ) :   0.9704 B(  6-C , 12-H ) :   0.9743
B(  6-C , 13-H ) :   0.9658 B(  6-C , 14-H ) :   0.9743

FINAL SINGLE POINT ENERGY      -382.883926357503

DIPOLE MOMENT
-------------

Method             : SCF
Type of density    : Electron Density
Multiplicity       :   1
Irrep              :   0
Energy             :  -382.8839263575026735 Eh
Relativity type    :
Basis              : AO
                                X                 Y                 Z
Electronic contribution:     -3.895948399       0.161600795       0.000194733
Nuclear contribution   :      4.023201887      -0.376184533      -0.000065788
                        -----------------------------------------
Total Dipole Moment    :      0.127253489      -0.214583738       0.000128945
                        -----------------------------------------
Magnitude (a.u.)       :      0.249478752
Magnitude (Debye)      :      0.634124593

Rotational constants in cm-1:             0.284842             0.044788             0.039563
Rotational constants in MHz :          8539.349709          1342.710893          1186.078753

                             ****ORCA TERMINATED NORMALLY****
TOTAL RUN TIME: 0 days 0 hours 1 minutes 36 seconds 262 msec
