                         Program Version 6.0.1  -  RELEASE   -
|  1> ! Opt B3LYP def2-TZVP TightSCF TightOpt CPCM(water)
|  2>
|  3> %maxcore 5000
|  4>
|  5> %pal
|  6> nprocs 20
|  7> end
|  8>
|  9> * xyz 0 1
| 10> O          0.68030       -0.45370        0.00050
| 11> O         -1.49990       -0.77980        0.00030
| 12> O         -0.70930        1.38540        0.00010
| 13> C          1.82450        0.40650       -0.00030
| 14> C          3.07860       -0.44140       -0.00030
| 15> C         -0.52830        0.17520        0.00060
| 16> C         -2.84580       -0.29220       -0.00070
| 17> H          1.80520        1.03900       -0.89490
| 18> H          1.80570        1.03980        0.89370
| 19> H          3.97460        0.18570       -0.00090
| 20> H          3.10340       -1.09290        0.87950
| 21> H          3.10290       -1.09360       -0.87950
| 22> H         -3.03430        0.30100        0.89920
| 23> H         -3.51930       -1.15330       -0.00080
| 24> H         -3.03320        0.30050       -0.90120
| 25> *
| 26>
| 27>                          ****END OF INPUT****
 Total Charge           Charge          ....    0
 Multiplicity           Mult            ....    1
 Number of Electrons    NEL             ....   56
FINAL SINGLE POINT ENERGY      -382.890588917049
FINAL SINGLE POINT ENERGY      -382.893220003386
FINAL SINGLE POINT ENERGY      -382.893586057529
FINAL SINGLE POINT ENERGY      -382.893545738738
FINAL SINGLE POINT ENERGY      -382.893678797168
FINAL SINGLE POINT ENERGY      -382.893685888590
FINAL SINGLE POINT ENERGY      -382.893686721992
FINAL SINGLE POINT ENERGY      -382.893687006938
                    ***********************HURRAY********************

CARTESIAN COORDINATES (ANGSTROEM)
---------------------------------
  O      0.661704   -0.435846    0.000128
  O     -1.471683   -0.765053    0.000023
  O     -0.710451    1.367413   -0.001009
  C      1.834854    0.426325   -0.000221
  C      3.054233   -0.464416   -0.000214
  C     -0.522112    0.171891   -0.000361
  C     -2.834038   -0.287410   -0.000414
  H      1.793857    1.059981   -0.886551
  H      1.794157    1.060305    0.885896
  H      3.950676    0.158393    0.000162
  H      3.077126   -1.098851    0.887344
  H      3.077506   -1.098572   -0.887949
  H     -3.025314    0.307389    0.891412
  H     -3.450302   -1.181659    0.000057
  H     -3.025113    0.306311   -0.893003

 Multiplicity           Mult            ....    1
 Number of Electrons    NEL             ....   56
 Basis Dimension        Dim             ....  265

ORBITAL ENERGIES
----------------

  NO   OCC          E(Eh)            E(eV)
   0   2.0000     -19.178798      -521.8816
   1   2.0000     -19.176568      -521.8210
   2   2.0000     -19.118193      -520.2325
   3   2.0000     -10.347576      -281.5719
   4   2.0000     -10.227335      -278.2999
   5   2.0000     -10.221310      -278.1360
   6   2.0000     -10.161502      -276.5085
   7   2.0000      -1.147972       -31.2379
   8   2.0000      -1.058498       -28.8032
   9   2.0000      -1.026760       -27.9396
  10   2.0000      -0.783036       -21.3075
  11   2.0000      -0.724658       -19.7189
  12   2.0000      -0.637975       -17.3602
  13   2.0000      -0.576583       -15.6896
  14   2.0000      -0.550549       -14.9812
  15   2.0000      -0.515411       -14.0250
  16   2.0000      -0.497985       -13.5509
  17   2.0000      -0.471061       -12.8182
  18   2.0000      -0.444841       -12.1047
  19   2.0000      -0.422574       -11.4988
  20   2.0000      -0.419456       -11.4140
  21   2.0000      -0.390649       -10.6301
  22   2.0000      -0.372818       -10.1449
  23   2.0000      -0.366458        -9.9718
  24   2.0000      -0.359946        -9.7946
  25   2.0000      -0.320224        -8.7137
  26   2.0000      -0.309898        -8.4328
  27   2.0000      -0.302022        -8.2184
  28   0.0000       0.029643         0.8066
  29   0.0000       0.040382         1.0988
  30   0.0000       0.060471         1.6455
  31   0.0000       0.072675         1.9776
  32   0.0000       0.092026         2.5041

MULLIKEN ATOMIC CHARGES
-----------------------
   0 O :   -0.283455
   1 O :   -0.289564
   2 O :   -0.429030
   3 C :   -0.022500
   4 C :   -0.334825
   5 C :    0.486179
   6 C :   -0.181678
   7 H :    0.124083
   8 H :    0.124089
   9 H :    0.128252
  10 H :    0.122871
  11 H :    0.122881
  12 H :    0.141635
  13 H :    0.149426
  14 H :    0.141635
Sum of atomic charges:    0.0000000

LOEWDIN ATOMIC CHARGES
----------------------
   0 O :    0.249580
   1 O :    0.229360
   2 O :    0.038299
   3 C :   -0.280907
   4 C :   -0.302838
   5 C :   -0.639429
   6 C :   -0.283352
   7 H :    0.129865
   8 H :    0.129868
   9 H :    0.132269
  10 H :    0.123703
  11 H :    0.123694
  12 H :    0.115011
  13 H :    0.119866
  14 H :    0.115012

  Mayer bond orders larger than 0.100000
B(  0-O ,  3-C ) :   0.8407 B(  0-O ,  5-C ) :   1.2356 B(  1-O ,  5-C ) :   1.2217
B(  1-O ,  6-C ) :   0.8688 B(  2-O ,  5-C ) :   1.9046 B(  3-C ,  4-C ) :   0.9910
B(  3-C ,  7-H ) :   0.9637 B(  3-C ,  8-H ) :   0.9637 B(  4-C ,  9-H ) :   0.9644
B(  4-C , 10-H ) :   0.9688 B(  4-C , 11-H ) :   0.9688 B(  6-C , 12-H ) :   0.9707
B(  6-C , 13-H ) :   0.9628 B(  6-C , 14-H ) :   0.9707

FINAL SINGLE POINT ENERGY      -382.893687036064

DIPOLE MOMENT
-------------

Method             : SCF
Type of density    : Electron Density
Multiplicity       :   1
Irrep              :   0
Energy             :  -382.8936870360644207 Eh
Relativity type    :
Basis              : AO
                                X                 Y                 Z
Electronic contribution:     -3.860231460       0.187285482       0.000371392
Nuclear contribution   :      4.033256864      -0.477969254      -0.000238637
                        -----------------------------------------
Total Dipole Moment    :      0.173025403      -0.290683773       0.000132755
                        -----------------------------------------
Magnitude (a.u.)       :      0.338282225
Magnitude (Debye)      :      0.859845082

Rotational constants in cm-1:             0.283167             0.044541             0.039346
Rotational constants in MHz :          8489.127040          1335.315543          1179.549369

                             ****ORCA TERMINATED NORMALLY****
TOTAL RUN TIME: 0 days 0 hours 1 minutes 23 seconds 636 msec
