                         Program Version 6.0.1  -  RELEASE   -
|  1> ! OPT B3LYP def2-TZVP TightSCF
|  2>
|  3> %maxcore 5000
|  4>
|  5> %pal
|  6> nprocs 20
|  7> end
|  8>
|  9> * xyz 0 1
| 10> O           1.05346500653278      1.48840146399471      2.34492505679218
| 11>   O          -3.84774285879652     -2.49204764814425      1.79954590433012
| 12>   C           1.04676702317788     -0.00207786424045      0.40961089352861
| 13>   C          -0.24373231261313     -0.64781704094021      0.76500728321394
| 14>   C          -2.53339888365915     -1.26790242478875      0.15808061332907
| 15>   C          -1.31400529537794     -0.65954800134277     -0.13246316655348
| 16>   C           2.95793886892146      0.14016434339676     -1.11621857852708
| 17>   C           1.72457251576715     -0.39184387765122     -0.74855484579376
| 18>   C           1.62663615445144      0.99563397707774      1.21639437576577
| 19>   C          -0.41745049754751     -1.29428213844687      1.99210372963733
| 20>   C          -2.67030133371649     -1.90706339244914      1.39856368903759
| 21>   C          -3.68691437530110     -1.19816734571991     -0.82291686186715
| 22>   C           3.66249754406118     -0.32752908230165     -2.37603523257237
| 23>   C           3.51982296327623      1.10593748091839     -0.28242010261886
| 24>   C          -1.61274690026596     -1.92500480155017      2.30129325024987
| 25>   C           2.86376038370966      1.53163960067732      0.86242203899488
| 26>   C          -4.19172221619656     -2.54581426665927     -1.26980036236090
| 27>   C           2.92089960092536      0.01780033342633     -3.63809202546816
| 28>   C          -5.45360662285928     -2.95830122006345     -1.18353304023077
| 29>   C           2.52251505017108     -0.85513247030207     -4.55605983792434
| 30>   H          -1.20198335598888     -0.15143823469159     -1.08365409709205
| 31>   H           1.27391000424752     -1.15788984880753     -1.36998366997542
| 32>   H           0.39505953568200     -1.31470326689560      2.70720477082760
| 33>   H          -4.51631215211082     -0.62656012209923     -0.39177944056328
| 34>   H          -3.35014142419861     -0.64029242992810     -1.70123383831384
| 35>   H           3.82538169728302     -1.40928509922117     -2.34079299459823
| 36>   H           4.65393210509292      0.13646511578098     -2.40787073064259
| 37>   H           4.48248847068922      1.53775313912858     -0.53289069184756
| 38>   H          -1.73879450240140     -2.44195644588537      3.24399522159132
| 39>   H           3.28887433804878      2.29829278947229      1.49754604358449
| 40>   H          -3.44218531674804     -3.21465714231323     -1.68529684464286
| 41>   H           2.70206559915010      1.07363778395518     -3.77923128179293
| 42>   H           0.10295011843383      1.29946562070753      2.40235531243361
| 43>   H          -4.37076254794299     -2.74227893107231      1.02331632349667
| 44>   H          -5.75511584612542     -3.93934652784532     -1.52829943409211
| 45>   H          -6.23478090440883     -2.31911679982631     -0.78388045310781
| 46>   H           1.99318008373227     -0.54085718112357     -5.44716164973157
| 47>   H           2.71558185660640     -1.91768796345466     -4.45145034388000
| 48>   H          -5.58893738321522      1.40190123096959      4.14807180133537
| 49>   H          -4.52986129062834     -0.13185747150585      5.68710699564510
| 50>   C          -4.98018920782799      0.63415485633589      3.66777725915642
| 51>   O          -2.86357519809789      0.40015919993715      4.59949943106635
| 52>   C          -2.76700302077443      1.16881365008756      3.49424246481103
| 53>   C          -4.16879810072601     -0.19975932358076      4.66305889240366
| 54>   O          -3.96666864326183      1.28201531668974      2.88240038547100
| 55>   O          -1.76354261316660      1.68768503446876      3.11220561284510
| 56>   H          -5.59690464599994      0.02901291423595      3.00726049629562
| 57>   H          -4.08814812820331     -1.24396900220967      4.36088842455440
| 58> *
| 59>
| 60>                          ****END OF INPUT****
 Total Charge           Charge          ....    0
 Multiplicity           Mult            ....    1
 Number of Electrons    NEL             ....  188
FINAL SINGLE POINT ENERGY     -1189.348601015890
FINAL SINGLE POINT ENERGY     -1189.348605218715
FINAL SINGLE POINT ENERGY     -1189.348612499178
FINAL SINGLE POINT ENERGY     -1189.348611939233
FINAL SINGLE POINT ENERGY     -1189.348625054001
FINAL SINGLE POINT ENERGY     -1189.348634055947
FINAL SINGLE POINT ENERGY     -1189.348643304312
FINAL SINGLE POINT ENERGY     -1189.348649521886
FINAL SINGLE POINT ENERGY     -1189.348658703955
FINAL SINGLE POINT ENERGY     -1189.348675554692
FINAL SINGLE POINT ENERGY     -1189.348798691261
FINAL SINGLE POINT ENERGY     -1189.348803527098
FINAL SINGLE POINT ENERGY     -1189.348808353701
FINAL SINGLE POINT ENERGY     -1189.348812110176
FINAL SINGLE POINT ENERGY     -1189.348815112765
FINAL SINGLE POINT ENERGY     -1189.348819966810
FINAL SINGLE POINT ENERGY     -1189.348824055758
FINAL SINGLE POINT ENERGY     -1189.348825773114
FINAL SINGLE POINT ENERGY     -1189.348826881635
                    ***********************HURRAY********************

CARTESIAN COORDINATES (ANGSTROEM)
---------------------------------
  O      1.032396    1.391189    2.416289
  O     -3.862294   -2.564238    1.792929
  C      1.028892   -0.047066    0.442493
  C     -0.257823   -0.706875    0.784524
  C     -2.546405   -1.320989    0.167657
  C     -1.326663   -0.708926   -0.114220
  C      2.940723    0.136378   -1.078308
  C      1.707869   -0.406521   -0.724833
  C      1.606232    0.932988    1.272758
  C     -0.431508   -1.370775    2.002391
  C     -2.684666   -1.975678    1.399573
  C     -3.700608   -1.233830   -0.810932
  C      3.645426   -0.297843   -2.349913
  C      3.501700    1.080977   -0.220245
  C     -1.626602   -2.006452    2.301919
  C      2.843477    1.477867    0.933933
  C     -4.213068   -2.572268   -1.275570
  C      2.912320    0.096594   -3.602613
  C     -5.477465   -2.978248   -1.195547
  C      2.508876   -0.741450   -4.550367
  H     -1.215548   -0.185688   -1.057181
  H      1.259927   -1.158875   -1.364738
  H      0.380526   -1.399347    2.717623
  H     -4.526280   -0.663034   -0.371654
  H     -3.361262   -0.666241   -1.682087
  H      3.795853   -1.381912   -2.349243
  H      4.641958    0.156002   -2.363153
  H      4.464406    1.519340   -0.458981
  H     -1.752589   -2.539555    3.235877
  H      3.266957    2.229199    1.588165
  H     -3.467328   -3.240113   -1.699517
  H      2.704550    1.158670   -3.709446
  H      0.068554    1.265439    2.432999
  H     -4.388420   -2.797388    1.013580
  H     -5.784729   -3.952611   -1.553935
  H     -6.254888   -2.339950   -0.787315
  H      1.985924   -0.392648   -5.432347
  H      2.690780   -1.808809   -4.480221
  H     -5.547652    1.426346    4.121402
  H     -4.279712    0.112354    5.704625
  C     -4.944047    0.638745    3.667618
  O     -2.744300    0.591442    4.418005
  C     -2.784247    1.239331    3.235654
  C     -4.007179   -0.049925    4.664043
  O     -4.036881    1.242619    2.730814
  O     -1.844731    1.750837    2.706503
  H     -5.583520   -0.057942    3.130505
  H     -3.899958   -1.116371    4.465742

 Multiplicity           Mult            ....    1
 Number of Electrons    NEL             ....  188
 Basis Dimension        Dim             ....  938

ORBITAL ENERGIES
----------------

  NO   OCC          E(Eh)            E(eV)
   0   2.0000     -19.195335      -522.3316
   1   2.0000     -19.194827      -522.3178
   2   2.0000     -19.155303      -521.2423
   3   2.0000     -19.125286      -520.4255
   4   2.0000     -19.123177      -520.3681
   5   2.0000     -10.357300      -281.8365
   6   2.0000     -10.261784      -279.2373
   7   2.0000     -10.260177      -279.1936
   8   2.0000     -10.233288      -278.4619
   9   2.0000     -10.216024      -277.9921
  10   2.0000     -10.197018      -277.4750
  11   2.0000     -10.191477      -277.3242
  12   2.0000     -10.184146      -277.1247
  13   2.0000     -10.184123      -277.1241
  14   2.0000     -10.175721      -276.8954
  15   2.0000     -10.172493      -276.8076
  16   2.0000     -10.171181      -276.7719
  17   2.0000     -10.169307      -276.7209
  18   2.0000     -10.168194      -276.6906
  19   2.0000     -10.167345      -276.6675
  20   2.0000     -10.166773      -276.6520
  21   2.0000     -10.162035      -276.5230
  22   2.0000     -10.158389      -276.4238
  23   2.0000     -10.158079      -276.4154
  24   2.0000     -10.154210      -276.3101
  25   2.0000     -10.151289      -276.2306
  26   2.0000      -1.172309       -31.9001
  27   2.0000      -1.060212       -28.8498
  28   2.0000      -1.060101       -28.8468
  29   2.0000      -1.054793       -28.7024
  30   2.0000      -1.031715       -28.0744
  31   2.0000      -0.864551       -23.5256
  32   2.0000      -0.843282       -22.9469
  33   2.0000      -0.818648       -22.2765
  34   2.0000      -0.796495       -21.6737
  35   2.0000      -0.790915       -21.5219
  36   2.0000      -0.767889       -20.8953
  37   2.0000      -0.759350       -20.6630
  38   2.0000      -0.732674       -19.9371
  39   2.0000      -0.714812       -19.4510
  40   2.0000      -0.693528       -18.8719
  41   2.0000      -0.692182       -18.8352
  42   2.0000      -0.667079       -18.1521
  43   2.0000      -0.626043       -17.0355
  44   2.0000      -0.621252       -16.9051
  45   2.0000      -0.614719       -16.7274
  46   2.0000      -0.587846       -15.9961
  47   2.0000      -0.580461       -15.7951
  48   2.0000      -0.574329       -15.6283
  49   2.0000      -0.556335       -15.1386
  50   2.0000      -0.548211       -14.9176
  51   2.0000      -0.543368       -14.7858
  52   2.0000      -0.535590       -14.5741
  53   2.0000      -0.526944       -14.3389
  54   2.0000      -0.519806       -14.1446
  55   2.0000      -0.493905       -13.4398
  56   2.0000      -0.485127       -13.2010
  57   2.0000      -0.476720       -12.9722
  58   2.0000      -0.468820       -12.7572
  59   2.0000      -0.460760       -12.5379
  60   2.0000      -0.457444       -12.4477
  61   2.0000      -0.454476       -12.3669
  62   2.0000      -0.453522       -12.3410
  63   2.0000      -0.452369       -12.3096
  64   2.0000      -0.439600       -11.9621
  65   2.0000      -0.427194       -11.6245
  66   2.0000      -0.424000       -11.5376
  67   2.0000      -0.419068       -11.4034
  68   2.0000      -0.415302       -11.3009
  69   2.0000      -0.413009       -11.2385
  70   2.0000      -0.400232       -10.8909
  71   2.0000      -0.395020       -10.7491
  72   2.0000      -0.393498       -10.7076
  73   2.0000      -0.393116       -10.6972
  74   2.0000      -0.390796       -10.6341
  75   2.0000      -0.379487       -10.3264
  76   2.0000      -0.372377       -10.1329
  77   2.0000      -0.365371        -9.9422
  78   2.0000      -0.354262        -9.6400
  79   2.0000      -0.349332        -9.5058
  80   2.0000      -0.347677        -9.4608
  81   2.0000      -0.341025        -9.2798
  82   2.0000      -0.332913        -9.0590
  83   2.0000      -0.327130        -8.9017
  84   2.0000      -0.325428        -8.8553
  85   2.0000      -0.321198        -8.7402
  86   2.0000      -0.315399        -8.5825
  87   2.0000      -0.305545        -8.3143
  88   2.0000      -0.286161        -7.7868
  89   2.0000      -0.258010        -7.0208
  90   2.0000      -0.253425        -6.8960
  91   2.0000      -0.250525        -6.8171
  92   2.0000      -0.222472        -6.0538
  93   2.0000      -0.201707        -5.4887
  94   0.0000      -0.026673        -0.7258
  95   0.0000      -0.017116        -0.4657
  96   0.0000      -0.005424        -0.1476
  97   0.0000       0.007677         0.2089
  98   0.0000       0.009111         0.2479

MULLIKEN ATOMIC CHARGES
-----------------------
   0 O :   -0.409525
   1 O :   -0.434806
   2 C :    0.103360
   3 C :    0.063244
   4 C :    0.100598
   5 C :   -0.236487
   6 C :    0.130043
   7 C :   -0.257389
   8 C :    0.225663
   9 C :   -0.164007
  10 C :    0.257364
  11 C :   -0.256532
  12 C :   -0.196692
  13 C :   -0.137402
  14 C :   -0.245155
  15 C :   -0.229420
  16 C :   -0.136489
  17 C :   -0.085260
  18 C :   -0.272232
  19 C :   -0.266303
  20 H :    0.117587
  21 H :    0.113356
  22 H :    0.116958
  23 H :    0.126671
  24 H :    0.118637
  25 H :    0.099917
  26 H :    0.103825
  27 H :    0.090689
  28 H :    0.104135
  29 H :    0.100831
  30 H :    0.118393
  31 H :    0.101249
  32 H :    0.331733
  33 H :    0.323375
  34 H :    0.124230
  35 H :    0.118955
  36 H :    0.106579
  37 H :    0.098751
  38 H :    0.114744
  39 H :    0.122245
  40 C :   -0.014253
  41 O :   -0.254390
  42 C :    0.445986
  43 C :   -0.029122
  44 O :   -0.260444
  45 O :   -0.332614
  46 H :    0.115591
  47 H :    0.123815
Sum of atomic charges:    0.0000000

LOEWDIN ATOMIC CHARGES
----------------------
   0 O :    0.092789
   1 O :    0.067654
   2 C :   -0.092756
   3 C :   -0.114094
   4 C :   -0.131376
   5 C :   -0.069043
   6 C :   -0.153179
   7 C :   -0.072680
   8 C :   -0.235666
   9 C :   -0.098051
  10 C :   -0.244306
  11 C :   -0.201032
  12 C :   -0.201621
  13 C :   -0.119767
  14 C :   -0.126641
  15 C :   -0.119156
  16 C :   -0.193960
  17 C :   -0.186672
  18 C :   -0.220703
  19 C :   -0.223948
  20 H :    0.152517
  21 H :    0.151761
  22 H :    0.153169
  23 H :    0.148956
  24 H :    0.154422
  25 H :    0.144898
  26 H :    0.146559
  27 H :    0.142336
  28 H :    0.146177
  29 H :    0.146562
  30 H :    0.144569
  31 H :    0.139351
  32 H :    0.179970
  33 H :    0.181124
  34 H :    0.123233
  35 H :    0.121425
  36 H :    0.117933
  37 H :    0.117180
  38 H :    0.125862
  39 H :    0.128844
  40 C :   -0.257863
  41 O :    0.264570
  42 C :   -0.606894
  43 C :   -0.256575
  44 O :    0.262949
  45 O :    0.112479
  46 H :    0.129754
  47 H :    0.128941

  Mayer bond orders larger than 0.100000
B(  0-O ,  8-C ) :   1.1328 B(  0-O , 32-H ) :   0.8384 B(  1-O , 10-C ) :   1.0430
B(  1-O , 33-H ) :   0.8607 B(  2-C ,  3-C ) :   0.8625 B(  2-C ,  7-C ) :   1.3004
B(  2-C ,  8-C ) :   1.2491 B(  3-C ,  5-C ) :   1.4251 B(  3-C ,  9-C ) :   1.3533
B(  4-C ,  5-C ) :   1.3491 B(  4-C , 10-C ) :   1.2813 B(  4-C , 11-C ) :   0.9033
B(  5-C , 20-H ) :   0.9534 B(  6-C ,  7-C ) :   1.3870 B(  6-C , 12-C ) :   0.9105
B(  6-C , 13-C ) :   1.3628 B(  7-C , 21-H ) :   0.9713 B(  8-C , 15-C ) :   1.4228
B(  9-C , 14-C ) :   1.3954 B(  9-C , 22-H ) :   0.9897 B( 10-C , 14-C ) :   1.3694
B( 11-C , 16-C ) :   0.9549 B( 11-C , 23-H ) :   0.9806 B( 11-C , 24-H ) :   0.9658
B( 12-C , 17-C ) :   0.9677 B( 12-C , 25-H ) :   0.9659 B( 12-C , 26-H ) :   0.9726
B( 13-C , 15-C ) :   1.4234 B( 13-C , 27-H ) :   0.9786 B( 14-C , 28-H ) :   0.9973
B( 15-C , 29-H ) :   0.9835 B( 16-C , 18-C ) :   1.8904 B( 16-C , 30-H ) :   0.9559
B( 17-C , 19-C ) :   1.9258 B( 17-C , 31-H ) :   0.9549 B( 18-C , 34-H ) :   0.9674
B( 18-C , 35-H ) :   0.9645 B( 19-C , 36-H ) :   0.9660 B( 19-C , 37-H ) :   0.9623
B( 38-H , 40-C ) :   0.9607 B( 39-H , 43-C ) :   0.9609 B( 40-C , 43-C ) :   0.9914
B( 40-C , 44-O ) :   0.9239 B( 40-C , 46-H ) :   0.9574 B( 41-O , 42-C ) :   1.1599
B( 41-O , 43-C ) :   0.9295 B( 42-C , 44-O ) :   1.1510 B( 42-C , 45-O ) :   2.0030
B( 43-C , 47-H ) :   0.9543

FINAL SINGLE POINT ENERGY     -1189.348827519830

DIPOLE MOMENT
-------------

Method             : SCF
Type of density    : Electron Density
Multiplicity       :   1
Irrep              :   0
Energy             : -1189.3488275198296833 Eh
Relativity type    :
Basis              : AO
                                X                 Y                 Z
Electronic contribution:      0.803106197       7.596113536      15.806451723
Nuclear contribution   :     -3.328900995      -8.549596376     -15.450873225
                        -----------------------------------------
Total Dipole Moment    :     -2.525794798      -0.953482839       0.355578497
                        -----------------------------------------
Magnitude (a.u.)       :      2.723087394
Magnitude (Debye)      :      6.921538092

Rotational constants in cm-1:             0.009330             0.004164             0.003160
Rotational constants in MHz :           279.697000           124.846816            94.729393

                             ****ORCA TERMINATED NORMALLY****
TOTAL RUN TIME: 0 days 0 hours 25 minutes 18 seconds 394 msec
