                         Program Version 6.0.1  -  RELEASE   -
|  1> ! B3LYP def2-TZVP TightSCF
|  2>
|  3> %maxcore 5000
|  4>
|  5> %pal
|  6> nprocs 20
|  7> end
|  8>
|  9> * xyz 0 1
| 10> F          -1.89946483652512      0.66585406736162     -0.68826879533865
| 11>   O           0.04918238941389      0.91893198184799      0.43408247558914
| 12>   O           0.56002926603741     -1.17155858466395     -0.15016012188964
| 13>   O           2.16295874547399      0.41985885630053     -0.21473669009335
| 14>   C          -1.18026350942500      0.25671886272942      0.41467070816965
| 15>   C          -0.80121802577835     -1.21633882706428      0.28813262068444
| 16>   C           1.04878609173072      0.08136699703365     -0.00957502323774
| 17>   H          -1.75590753280754      0.52959839922983      1.29704028714260
| 18>   H          -0.85484990285716     -1.74029979994354      1.24351590167986
| 19>   H          -1.40595268526285     -1.72513195283128     -0.45940136270629
| 20> *
| 21>
| 22>                          ****END OF INPUT****

CARTESIAN COORDINATES (ANGSTROEM)
---------------------------------
  F     -1.899465    0.665854   -0.688269
  O      0.049182    0.918932    0.434082
  O      0.560029   -1.171559   -0.150160
  O      2.162959    0.419859   -0.214737
  C     -1.180264    0.256719    0.414671
  C     -0.801218   -1.216339    0.288133
  C      1.048786    0.081367   -0.009575
  H     -1.755908    0.529598    1.297040
  H     -0.854850   -1.740300    1.243516
  H     -1.405953   -1.725132   -0.459401

 Total Charge           Charge          ....    0
 Multiplicity           Mult            ....    1
 Number of Electrons    NEL             ....   54
 Basis Dimension        Dim             ....  235

ORBITAL ENERGIES
----------------

  NO   OCC          E(Eh)            E(eV)
   0   2.0000     -24.703664      -672.2209
   1   2.0000     -19.208962      -522.7024
   2   2.0000     -19.206497      -522.6353
   3   2.0000     -19.132818      -520.6304
   4   2.0000     -10.364476      -282.0317
   5   2.0000     -10.344273      -281.4820
   6   2.0000     -10.273127      -279.5460
   7   2.0000      -1.245390       -33.8888
   8   2.0000      -1.178687       -32.0737
   9   2.0000      -1.074366       -29.2350
  10   2.0000      -1.066451       -29.0196
  11   2.0000      -0.802564       -21.8389
  12   2.0000      -0.705733       -19.2040
  13   2.0000      -0.645540       -17.5660
  14   2.0000      -0.584213       -15.8972
  15   2.0000      -0.572783       -15.5862
  16   2.0000      -0.538641       -14.6572
  17   2.0000      -0.508250       -13.8302
  18   2.0000      -0.485320       -13.2062
  19   2.0000      -0.467951       -12.7336
  20   2.0000      -0.449715       -12.2374
  21   2.0000      -0.423453       -11.5227
  22   2.0000      -0.405744       -11.0409
  23   2.0000      -0.380917       -10.3653
  24   2.0000      -0.363363        -9.8876
  25   2.0000      -0.333921        -9.0864
  26   2.0000      -0.321828        -8.7574
  27   0.0000       0.010396         0.2829
  28   0.0000       0.021267         0.5787
  29   0.0000       0.035150         0.9565
  30   0.0000       0.057082         1.5533
  31   0.0000       0.078678         2.1409

MULLIKEN ATOMIC CHARGES
-----------------------
   0 F :   -0.214895
   1 O :   -0.231528
   2 O :   -0.240837
   3 O :   -0.240039
   4 C :    0.241352
   5 C :   -0.008810
   6 C :    0.356754
   7 H :    0.096521
   8 H :    0.111263
   9 H :    0.130221
Sum of atomic charges:   -0.0000000

LOEWDIN ATOMIC CHARGES
----------------------
   0 F :    0.120458
   1 O :    0.282621
   2 O :    0.264387
   3 O :    0.151592
   4 C :   -0.398314
   5 C :   -0.240977
   6 C :   -0.585209
   7 H :    0.132634
   8 H :    0.133186
   9 H :    0.139623

  Mayer bond orders larger than 0.100000
B(  0-F ,  4-C ) :   1.0450 B(  1-O ,  4-C ) :   1.0421 B(  1-O ,  6-C ) :   1.0797
B(  2-O ,  5-C ) :   0.9470 B(  2-O ,  6-C ) :   1.1548 B(  3-O ,  6-C ) :   2.1839
B(  4-C ,  5-C ) :   0.9747 B(  4-C ,  7-H ) :   0.9750 B(  5-C ,  8-H ) :   0.9459
B(  5-C ,  9-H ) :   0.9558

FINAL SINGLE POINT ENERGY      -441.632485801399

DIPOLE MOMENT
-------------

Method             : SCF
Type of density    : Electron Density
Multiplicity       :   1
Irrep              :   0
Energy             :  -441.6324858013994685 Eh
Relativity type    :
Basis              : AO
                                X                 Y                 Z
Electronic contribution:      0.384637235       2.555227389      -1.803433613
Nuclear contribution   :     -1.840183293      -3.401907833       2.619362971
                        -----------------------------------------
Total Dipole Moment    :     -1.455546058      -0.846680444       0.815929358
                        -----------------------------------------
Magnitude (a.u.)       :      1.871155477
Magnitude (Debye)      :      4.756099248

Rotational constants in cm-1:             0.185828             0.079831             0.063943
Rotational constants in MHz :          5570.996574          2393.271046          1916.951086

                             ****ORCA TERMINATED NORMALLY****
TOTAL RUN TIME: 0 days 0 hours 0 minutes 9 seconds 81 msec
