                         Program Version 6.0.1  -  RELEASE   -
|  1> ! Opt B3LYP def2-TZVP TightSCF TightOpt D3BJ RIJCOSX
|  2>
|  3> %maxcore 5000
|  4>
|  5> %pal
|  6> nprocs 4
|  7> end
|  8>
|  9> * xyz 0 1
| 10> O           1.49558779142304      1.27339391926726      2.47644933244666
| 11>   O          -3.60018768470027     -2.41412853862439      2.16492063329164
| 12>   C           1.24765023694115     -0.04666685502922      0.44858839419162
| 13>   C          -0.03192169069994     -0.65192661751622      0.90131104883695
| 14>   C          -2.39477588193204     -1.14398603476141      0.48060472040162
| 15>   C          -1.17975065728897     -0.57468961103786      0.10719028517377
| 16>   C           2.97810901172051      0.18240714858684     -1.26742104842717
| 17>   C           1.78046910415805     -0.35827369514841     -0.80422767660789
| 18>   C           1.94958812930936      0.86767667418238      1.25414139803934
| 19>   C          -0.13331646111852     -1.33657075558741      2.11925983222331
| 20>   C          -2.45594308096110     -1.83283498268472      1.70288891327828
| 21>   C          -3.62352540841454     -0.98470026105547     -0.39291273344597
| 22>   C           3.52064210879465     -0.19504915655643     -2.63299274813499
| 23>   C           3.65421211674002      1.07358635723540     -0.43570773456224
| 24>   C          -1.32796280965389     -1.91988642570701      2.51360387606384
| 25>   C           3.14656878258809      1.41782176554498      0.80902986557778
| 26>   C          -4.22563609710867     -2.28690671529490     -0.85520340130792
| 27>   C           2.66112914094540      0.28845256360382     -3.76898413148891
| 28>   C          -5.49745877586260     -2.64024402022177     -0.69219159217889
| 29>   C           2.12579446620224     -0.48446818352611     -4.70652039490830
| 30>   H          -1.12845144916210     -0.03332990744902     -0.83077875258557
| 31>   H           1.24258575091372     -1.06232043638859     -1.42933414757848
| 32>   H           0.74178633107515     -1.44852707503729      2.74845888382160
| 33>   H          -4.38836678269177     -0.40359220169383      0.13425068596220
| 34>   H          -3.33927021986988     -0.39856040995982     -1.27165133082687
| 35>   H           3.63618469220565     -1.28064162330830     -2.70716635753692
| 36>   H           4.52291268967338      0.23356835282396     -2.73760390189418
| 37>   H           4.59200445672437      1.50834541173532     -0.76269561539355
| 38>   H          -1.40140651783822     -2.46605843844040      3.44520950836186
| 39>   H           3.66244403927807      2.12228555642964      1.44879939011050
| 40>   H          -3.54383542789994     -2.97110682164535     -1.35405521547213
| 41>   H           2.47698593372365      1.35988815909262     -3.79439656279917
| 42>   H           0.62237401725115      0.89062319910831      2.63672050081024
| 43>   H          -4.22314953706850     -2.55221936624591      1.43678641214245
| 44>   H          -5.87322555475106     -3.58884849249724     -1.05423987591753
| 45>   H          -6.21251826730287     -1.98488215596209     -0.20494214218448
| 46>   H           1.51754359422892     -0.07344458560922     -5.50274128247225
| 47>   H           2.28119430492829     -1.55819624882209     -4.71468349001024
| 48> *
| 49>
| 50>                          ****END OF INPUT****
 Total Charge           Charge          ....    0
 Multiplicity           Mult            ....    1
 Number of Electrons    NEL             ....  142
Dispersion correction           -0.079893345
FINAL SINGLE POINT ENERGY      -847.048332628924
Dispersion correction             ... done (  0.0 sec)
Dispersion correction           -0.080279454
FINAL SINGLE POINT ENERGY      -847.048505161774
Dispersion correction             ... done (  0.0 sec)
Dispersion correction           -0.080329783
FINAL SINGLE POINT ENERGY      -847.048531991053
Dispersion correction             ... done (  0.0 sec)
FINAL SINGLE POINT ENERGY      -847.048545823134
FINAL SINGLE POINT ENERGY      -847.048559015649
FINAL SINGLE POINT ENERGY      -847.048563017055
FINAL SINGLE POINT ENERGY      -847.048570571678
FINAL SINGLE POINT ENERGY      -847.048574053105
FINAL SINGLE POINT ENERGY      -847.048576485957
FINAL SINGLE POINT ENERGY      -847.048578020729
FINAL SINGLE POINT ENERGY      -847.048578004201
FINAL SINGLE POINT ENERGY      -847.048579005064
Dispersion correction             ... done (  0.0 sec)
Dispersion correction           -0.080409106
FINAL SINGLE POINT ENERGY      -847.048579181056
Dispersion correction             ... done (  0.0 sec)
Dispersion correction           -0.080409925
FINAL SINGLE POINT ENERGY      -847.048579200210
Dispersion correction             ... done (  0.0 sec)
                    ***********************HURRAY********************

CARTESIAN COORDINATES (ANGSTROEM)
---------------------------------
  O      1.530232    1.205145    2.516868
  O     -3.602470   -2.388446    2.109288
  C      1.263897   -0.045226    0.452739
  C     -0.016603   -0.644979    0.891018
  C     -2.374452   -1.111855    0.451845
  C     -1.155699   -0.549308    0.090319
  C      2.978293    0.223527   -1.264584
  C      1.780833   -0.321037   -0.812155
  C      1.977821    0.834601    1.282123
  C     -0.128337   -1.340336    2.099785
  C     -2.449441   -1.813002    1.664581
  C     -3.594014   -0.944041   -0.426064
  C      3.503859   -0.119049   -2.642628
  C      3.668907    1.080860   -0.412266
  C     -1.328821   -1.917897    2.481133
  C      3.175283    1.388301    0.846849
  C     -4.174367   -2.249542   -0.898358
  C      2.536414    0.235038   -3.734331
  C     -5.435806   -2.629299   -0.720175
  C      2.007497   -0.627793   -4.592716
  H     -1.092799    0.000768   -0.841059
  H      1.230069   -0.995031   -1.457356
  H      0.743882   -1.465755    2.729396
  H     -4.366807   -0.377654    0.104285
  H     -3.307759   -0.347217   -1.296105
  H      3.739983   -1.185794   -2.702960
  H      4.442644    0.420405   -2.801472
  H      4.605478    1.519260   -0.736056
  H     -1.412617   -2.474000    3.405340
  H      3.700275    2.069310    1.503531
  H     -3.481978   -2.916059   -1.405434
  H      2.252705    1.283069   -3.786900
  H      0.651934    0.827825    2.662146
  H     -4.209431   -2.530815    1.368329
  H     -5.797883   -3.583501   -1.080439
  H     -6.154973   -1.988653   -0.219966
  H      1.308173   -0.313793   -5.357364
  H      2.261142   -1.682037   -4.563429

 Multiplicity           Mult            ....    1
 Number of Electrons    NEL             ....  142
 Basis Dimension        Dim             ....  728

ORBITAL ENERGIES
----------------

  NO   OCC          E(Eh)            E(eV)
   0   2.0000     -19.153838      -521.2024
   1   2.0000     -19.147783      -521.0377
   2   2.0000     -10.237890      -278.5872
   3   2.0000     -10.228315      -278.3266
   4   2.0000     -10.198283      -277.5094
   5   2.0000     -10.194578      -277.4086
   6   2.0000     -10.189377      -277.2670
   7   2.0000     -10.184935      -277.1462
   8   2.0000     -10.184686      -277.1394
   9   2.0000     -10.180619      -277.0287
  10   2.0000     -10.179698      -277.0037
  11   2.0000     -10.178581      -276.9733
  12   2.0000     -10.174448      -276.8608
  13   2.0000     -10.173757      -276.8420
  14   2.0000     -10.173493      -276.8348
  15   2.0000     -10.171355      -276.7766
  16   2.0000     -10.168235      -276.6917
  17   2.0000     -10.167473      -276.6710
  18   2.0000     -10.163367      -276.5593
  19   2.0000     -10.160555      -276.4828
  20   2.0000      -1.062685       -28.9171
  21   2.0000      -1.056027       -28.7360
  22   2.0000      -0.873417       -23.7669
  23   2.0000      -0.854193       -23.2438
  24   2.0000      -0.823645       -22.4125
  25   2.0000      -0.800112       -21.7722
  26   2.0000      -0.776807       -21.1380
  27   2.0000      -0.765474       -20.8296
  28   2.0000      -0.743118       -20.2213
  29   2.0000      -0.723660       -19.6918
  30   2.0000      -0.697548       -18.9813
  31   2.0000      -0.676608       -18.4115
  32   2.0000      -0.635999       -17.3064
  33   2.0000      -0.621590       -16.9143
  34   2.0000      -0.596968       -16.2443
  35   2.0000      -0.589170       -16.0321
  36   2.0000      -0.578201       -15.7336
  37   2.0000      -0.555399       -15.1132
  38   2.0000      -0.551754       -15.0140
  39   2.0000      -0.539173       -14.6716
  40   2.0000      -0.500021       -13.6063
  41   2.0000      -0.494070       -13.4443
  42   2.0000      -0.485755       -13.2181
  43   2.0000      -0.475338       -12.9346
  44   2.0000      -0.462337       -12.5808
  45   2.0000      -0.456534       -12.4229
  46   2.0000      -0.445698       -12.1281
  47   2.0000      -0.433564       -11.7979
  48   2.0000      -0.432921       -11.7804
  49   2.0000      -0.428545       -11.6613
  50   2.0000      -0.421949       -11.4818
  51   2.0000      -0.418370       -11.3844
  52   2.0000      -0.409226       -11.1356
  53   2.0000      -0.406078       -11.0499
  54   2.0000      -0.398693       -10.8490
  55   2.0000      -0.393827       -10.7166
  56   2.0000      -0.376751       -10.2519
  57   2.0000      -0.369427       -10.0526
  58   2.0000      -0.367844       -10.0095
  59   2.0000      -0.359309        -9.7773
  60   2.0000      -0.354921        -9.6579
  61   2.0000      -0.349470        -9.5096
  62   2.0000      -0.339393        -9.2354
  63   2.0000      -0.332406        -9.0452
  64   2.0000      -0.323779        -8.8105
  65   2.0000      -0.287976        -7.8362
  66   2.0000      -0.265795        -7.2326
  67   2.0000      -0.261468        -7.1149
  68   2.0000      -0.259958        -7.0738
  69   2.0000      -0.230111        -6.2616
  70   2.0000      -0.211951        -5.7675
  71   0.0000      -0.031498        -0.8571
  72   0.0000      -0.027014        -0.7351
  73   0.0000      -0.008431        -0.2294
  74   0.0000      -0.001522        -0.0414
  75   0.0000       0.003064         0.0834

MULLIKEN ATOMIC CHARGES
-----------------------
   0 O :   -0.395059
   1 O :   -0.399285
   2 C :    0.159515
   3 C :    0.062334
   4 C :    0.084859
   5 C :   -0.283317
   6 C :    0.108888
   7 C :   -0.253144
   8 C :    0.193245
   9 C :   -0.254829
  10 C :    0.261510
  11 C :   -0.252331
  12 C :   -0.182528
  13 C :   -0.139682
  14 C :   -0.202041
  15 C :   -0.227960
  16 C :   -0.139247
  17 C :   -0.088512
  18 C :   -0.271935
  19 C :   -0.267002
  20 H :    0.124345
  21 H :    0.127968
  22 H :    0.148616
  23 H :    0.129828
  24 H :    0.116866
  25 H :    0.098807
  26 H :    0.105419
  27 H :    0.094528
  28 H :    0.111348
  29 H :    0.104659
  30 H :    0.117824
  31 H :    0.101156
  32 H :    0.322312
  33 H :    0.322383
  34 H :    0.124803
  35 H :    0.125358
  36 H :    0.108488
  37 H :    0.101813
Sum of atomic charges:    0.0000000

LOEWDIN ATOMIC CHARGES
----------------------
   0 O :    0.086642
   1 O :    0.090047
   2 C :   -0.097777
   3 C :   -0.125570
   4 C :   -0.129921
   5 C :   -0.073523
   6 C :   -0.151591
   7 C :   -0.069387
   8 C :   -0.233143
   9 C :   -0.119321
  10 C :   -0.236758
  11 C :   -0.202061
  12 C :   -0.200041
  13 C :   -0.115672
  14 C :   -0.115128
  15 C :   -0.118803
  16 C :   -0.194759
  17 C :   -0.187862
  18 C :   -0.216429
  19 C :   -0.221130
  20 H :    0.152986
  21 H :    0.154017
  22 H :    0.152546
  23 H :    0.150737
  24 H :    0.153300
  25 H :    0.146128
  26 H :    0.146725
  27 H :    0.143629
  28 H :    0.149623
  29 H :    0.147445
  30 H :    0.144399
  31 H :    0.139532
  32 H :    0.184496
  33 H :    0.182578
  34 H :    0.123822
  35 H :    0.123520
  36 H :    0.118476
  37 H :    0.118230

  Mayer bond orders larger than 0.100000
B(  0-O ,  8-C ) :   1.1586 B(  0-O , 32-H ) :   0.8645 B(  1-O , 10-C ) :   1.1277
B(  1-O , 33-H ) :   0.8600 B(  2-C ,  3-C ) :   0.8571 B(  2-C ,  7-C ) :   1.3187
B(  2-C ,  8-C ) :   1.2335 B(  3-C ,  5-C ) :   1.4267 B(  3-C ,  9-C ) :   1.3290
B(  4-C ,  5-C ) :   1.3475 B(  4-C , 10-C ) :   1.2620 B(  4-C , 11-C ) :   0.9030
B(  5-C , 20-H ) :   0.9514 B(  6-C ,  7-C ) :   1.3890 B(  6-C , 12-C ) :   0.9210
B(  6-C , 13-C ) :   1.3673 B(  7-C , 21-H ) :   0.9639 B(  8-C , 15-C ) :   1.4243
B(  9-C , 14-C ) :   1.4121 B(  9-C , 22-H ) :   0.9822 B( 10-C , 14-C ) :   1.4092
B( 11-C , 16-C ) :   0.9576 B( 11-C , 23-H ) :   0.9796 B( 11-C , 24-H ) :   0.9672
B( 12-C , 17-C ) :   0.9661 B( 12-C , 25-H ) :   0.9606 B( 12-C , 26-H ) :   0.9737
B( 13-C , 15-C ) :   1.4200 B( 13-C , 27-H ) :   0.9778 B( 14-C , 28-H ) :   0.9832
B( 15-C , 29-H ) :   0.9840 B( 16-C , 18-C ) :   1.8892 B( 16-C , 30-H ) :   0.9563
B( 17-C , 19-C ) :   1.9271 B( 17-C , 31-H ) :   0.9544 B( 18-C , 34-H ) :   0.9678
B( 18-C , 35-H ) :   0.9641 B( 19-C , 36-H ) :   0.9667 B( 19-C , 37-H ) :   0.9623

Dispersion correction           -0.080409903
FINAL SINGLE POINT ENERGY      -847.048579207085

DIPOLE MOMENT
-------------

Method             : SCF
Type of density    : Electron Density
Multiplicity       :   1
Irrep              :   0
Energy             :  -846.9681693041870858 Eh
Relativity type    :
Basis              : AO
                                X                 Y                 Z
Electronic contribution:      3.059825124       2.448944973      12.553705343
Nuclear contribution   :     -3.902944536      -2.776375324     -13.286703300
                        -----------------------------------------
Total Dipole Moment    :     -0.843119412      -0.327430351      -0.732997957
                        -----------------------------------------
Magnitude (a.u.)       :      1.164193705
Magnitude (Debye)      :      2.959145231

Rotational constants in cm-1:             0.016471             0.006355             0.004829
Rotational constants in MHz :           493.783469           190.523312           144.766185

                             ****ORCA TERMINATED NORMALLY****
TOTAL RUN TIME: 0 days 0 hours 40 minutes 46 seconds 418 msec
