                         Program Version 6.0.1  -  RELEASE   -
|  1> ! Opt B3LYP def2-TZVP TightSCF TightOpt CPCM(water)
|  2>
|  3> %maxcore 5000
|  4>
|  5> %pal
|  6> nprocs 20
|  7> end
|  8>
|  9> * xyz 0 1
| 10> F         -1.73320        0.68190       -0.74970
| 11> O          0.06590        0.89910        0.56450
| 12> O          0.48020       -1.13660       -0.30030
| 13> O          2.16930        0.41450       -0.21450
| 14> C         -1.18080        0.24700        0.41100
| 15> C         -0.81200       -1.19520        0.29280
| 16> C          1.01050        0.08940       -0.00390
| 17> H         -1.86370        0.46440        1.23610
| 18> H         -0.71650       -1.68710        1.26590
| 19> H         -1.49640       -1.75840       -0.34660
| 20> *
| 21>
| 22>                          ****END OF INPUT****
 Total Charge           Charge          ....    0
 Multiplicity           Mult            ....    1
 Number of Electrons    NEL             ....   54
FINAL SINGLE POINT ENERGY      -441.642684251476
FINAL SINGLE POINT ENERGY      -441.646480404244
FINAL SINGLE POINT ENERGY      -441.647317756353
FINAL SINGLE POINT ENERGY      -441.647546475703
FINAL SINGLE POINT ENERGY      -441.647582062404
FINAL SINGLE POINT ENERGY      -441.647712937214
FINAL SINGLE POINT ENERGY      -441.647730626760
FINAL SINGLE POINT ENERGY      -441.647739636854
FINAL SINGLE POINT ENERGY      -441.647740384709
FINAL SINGLE POINT ENERGY      -441.647740690840
                    ***********************HURRAY********************

CARTESIAN COORDINATES (ANGSTROEM)
---------------------------------
  F     -1.891495    0.679406   -0.692611
  O      0.055564    0.917114    0.426869
  O      0.564925   -1.164780   -0.153819
  O      2.162957    0.420867   -0.213391
  C     -1.185984    0.250826    0.417482
  C     -0.809321   -1.218093    0.290050
  C      1.038046    0.076586   -0.007303
  H     -1.756879    0.525776    1.299394
  H     -0.849368   -1.735121    1.246939
  H     -1.405145   -1.733581   -0.458310

 Multiplicity           Mult            ....    1
 Number of Electrons    NEL             ....   54
 Basis Dimension        Dim             ....  235

ORBITAL ENERGIES
----------------

  NO   OCC          E(Eh)            E(eV)
   0   2.0000     -24.694963      -671.9841
   1   2.0000     -19.206053      -522.6233
   2   2.0000     -19.202320      -522.5217
   3   2.0000     -19.136094      -520.7196
   4   2.0000     -10.367691      -282.1192
   5   2.0000     -10.329525      -281.0807
   6   2.0000     -10.252875      -278.9949
   7   2.0000      -1.235699       -33.6251
   8   2.0000      -1.177012       -32.0281
   9   2.0000      -1.070123       -29.1195
  10   2.0000      -1.064163       -28.9574
  11   2.0000      -0.790204       -21.5025
  12   2.0000      -0.696659       -18.9571
  13   2.0000      -0.636778       -17.3276
  14   2.0000      -0.572178       -15.5698
  15   2.0000      -0.563541       -15.3347
  16   2.0000      -0.527666       -14.3585
  17   2.0000      -0.496568       -13.5123
  18   2.0000      -0.479570       -13.0498
  19   2.0000      -0.472167       -12.8483
  20   2.0000      -0.439452       -11.9581
  21   2.0000      -0.415974       -11.3192
  22   2.0000      -0.402137       -10.9427
  23   2.0000      -0.371659       -10.1134
  24   2.0000      -0.358216        -9.7476
  25   2.0000      -0.331264        -9.0142
  26   2.0000      -0.326524        -8.8852
  27   0.0000       0.011457         0.3118
  28   0.0000       0.035931         0.9777
  29   0.0000       0.063092         1.7168
  30   0.0000       0.081782         2.2254
  31   0.0000       0.098203         2.6722

MULLIKEN ATOMIC CHARGES
-----------------------
   0 F :   -0.238879
   1 O :   -0.250736
   2 O :   -0.255502
   3 O :   -0.345319
   4 C :    0.245096
   5 C :   -0.010459
   6 C :    0.398660
   7 H :    0.146523
   8 H :    0.152011
   9 H :    0.158603
Sum of atomic charges:   -0.0000000

LOEWDIN ATOMIC CHARGES
----------------------
   0 F :    0.103201
   1 O :    0.278288
   2 O :    0.266802
   3 O :    0.078753
   4 C :   -0.364144
   5 C :   -0.207593
   6 C :   -0.601756
   7 H :    0.148098
   8 H :    0.148863
   9 H :    0.149487

  Mayer bond orders larger than 0.100000
B(  0-F ,  4-C ) :   1.0175 B(  1-O ,  4-C ) :   1.0010 B(  1-O ,  6-C ) :   1.1136
B(  2-O ,  5-C ) :   0.8994 B(  2-O ,  6-C ) :   1.2046 B(  3-O ,  6-C ) :   2.1019
B(  4-C ,  5-C ) :   0.9920 B(  4-C ,  7-H ) :   0.9660 B(  5-C ,  8-H ) :   0.9430
B(  5-C ,  9-H ) :   0.9486

FINAL SINGLE POINT ENERGY      -441.647740781225

DIPOLE MOMENT
-------------

Method             : SCF
Type of density    : Electron Density
Multiplicity       :   1
Irrep              :   0
Energy             :  -441.6477407812251386 Eh
Relativity type    :
Basis              : AO
                                X                 Y                 Z
Electronic contribution:     -0.186876131       2.275956910      -1.539994550
Nuclear contribution   :     -1.843180039      -3.424609634       2.632310656
                        -----------------------------------------
Total Dipole Moment    :     -2.030056170      -1.148652724       1.092316106
                        -----------------------------------------
Magnitude (a.u.)       :      2.575594224
Magnitude (Debye)      :      6.546640248

Rotational constants in cm-1:             0.185598             0.079980             0.064018
Rotational constants in MHz :          5564.082409          2397.727904          1919.208110

                             ****ORCA TERMINATED NORMALLY****
TOTAL RUN TIME: 0 days 0 hours 1 minutes 43 seconds 692 msec
