                         Program Version 6.0.1  -  RELEASE   -
|  1> ! B3LYP def2-TZVP TightSCF
|  2>
|  3> %maxcore 5000
|  4>
|  5> %pal
|  6> nprocs 20
|  7> end
|  8>
|  9> * xyz 0 1
| 10> O           0.14195807768700      2.09649645532458     -1.71758039806954
| 11>   O          -4.11677461060348     -1.26837164177824      1.41684880324460
| 12>   C           1.01891116879739      0.48345699501260     -0.19322734147882
| 13>   C          -0.33800932726144      0.05739617583861      0.23116680549651
| 14>   C          -2.61815229857950     -0.65370132487175     -0.31349482882857
| 15>   C          -1.35479687451475     -0.21310516274641     -0.69157709671374
| 16>   C           3.45346826346022      0.26136238808768      0.04650317081735
| 17>   C           2.14970525830338     -0.10589223448056      0.37790533534919
| 18>   C           1.23245772529607      1.48820741439248     -1.15454611461401
| 19>   C          -0.62961098801703     -0.12613827011741      1.58460348021307
| 20>   C          -2.87310475440862     -0.82903433453494      1.05248634283977
| 21>   C          -3.69695898954153     -0.91251261570987     -1.34392670576360
| 22>   C           4.64062278629025     -0.42027016401517      0.70081200154604
| 23>   C           3.62454268957433      1.25921805153624     -0.90760509468109
| 24>   C          -1.88139527644026     -0.56566201210519      1.99162797404432
| 25>   C           2.52468689267115      1.86535234434629     -1.50202397212605
| 26>   C          -4.59640653228220      0.27847809780774     -1.55514244948926
| 27>   C           4.74727074883829     -1.88370489969172      0.36921093847323
| 28>   C          -5.91306377421964      0.28053423358574     -1.39243536117994
| 29>   C           4.77707582238039     -2.86852104377716      1.25893889832586
| 30>   H          -1.15260504881687     -0.08591870383506     -1.74719351953062
| 31>   H           1.99892001751600     -0.90169542103129      1.09812194263413
| 32>   H           0.12342672771298      0.09035074618038      2.33182909427335
| 33>   H          -3.20911236432750     -1.15994897976417     -2.29230459583180
| 34>   H          -4.29936265813573     -1.77460017090506     -1.05267762209117
| 35>   H           5.55358819595958      0.08772939236327      0.37273196115468
| 36>   H           4.59088083253884     -0.30217588776499      1.78761082606425
| 37>   H           4.62234205592137      1.57163680494710     -1.19338084879926
| 38>   H          -2.09216495733860     -0.69823016739369      3.04813959902179
| 39>   H           2.67086537878111      2.64780291464514     -2.24017259855935
| 40>   H          -4.09519062302390      1.19361985887824     -1.86105840327675
| 41>   H           4.79578502485740     -2.12290157732642     -0.69038098167719
| 42>   H           0.44107952413746      2.79356728757637     -2.31219057680528
| 43>   H          -4.16086903685334     -1.34587982130528      2.37639188148268
| 44>   H          -6.50376648573178      1.17158762663064     -1.56626406490827
| 45>   H          -6.44716526510819     -0.60760264562391     -1.07330047833755
| 46>   H           4.85726856263323     -3.90517883585645      0.95637994783046
| 47>   H           4.72445411184790     -2.67335087251834      2.32487404995057
| 48> *
| 49>
| 50>                          ****END OF INPUT****

CARTESIAN COORDINATES (ANGSTROEM)
---------------------------------
  O      0.141958    2.096496   -1.717580
  O     -4.116775   -1.268372    1.416849
  C      1.018911    0.483457   -0.193227
  C     -0.338009    0.057396    0.231167
  C     -2.618152   -0.653701   -0.313495
  C     -1.354797   -0.213105   -0.691577
  C      3.453468    0.261362    0.046503
  C      2.149705   -0.105892    0.377905
  C      1.232458    1.488207   -1.154546
  C     -0.629611   -0.126138    1.584603
  C     -2.873105   -0.829034    1.052486
  C     -3.696959   -0.912513   -1.343927
  C      4.640623   -0.420270    0.700812
  C      3.624543    1.259218   -0.907605
  C     -1.881395   -0.565662    1.991628
  C      2.524687    1.865352   -1.502024
  C     -4.596407    0.278478   -1.555142
  C      4.747271   -1.883705    0.369211
  C     -5.913064    0.280534   -1.392435
  C      4.777076   -2.868521    1.258939
  H     -1.152605   -0.085919   -1.747194
  H      1.998920   -0.901695    1.098122
  H      0.123427    0.090351    2.331829
  H     -3.209112   -1.159949   -2.292305
  H     -4.299363   -1.774600   -1.052678
  H      5.553588    0.087729    0.372732
  H      4.590881   -0.302176    1.787611
  H      4.622342    1.571637   -1.193381
  H     -2.092165   -0.698230    3.048140
  H      2.670865    2.647803   -2.240173
  H     -4.095191    1.193620   -1.861058
  H      4.795785   -2.122902   -0.690381
  H      0.441080    2.793567   -2.312191
  H     -4.160869   -1.345880    2.376392
  H     -6.503766    1.171588   -1.566264
  H     -6.447165   -0.607603   -1.073300
  H      4.857269   -3.905179    0.956380
  H      4.724454   -2.673351    2.324874

 Total Charge           Charge          ....    0
 Multiplicity           Mult            ....    1
 Number of Electrons    NEL             ....  142
 Basis Dimension        Dim             ....  728

ORBITAL ENERGIES
----------------

  NO   OCC          E(Eh)            E(eV)
   0   2.0000     -19.156314      -521.2698
   1   2.0000     -19.154604      -521.2233
   2   2.0000     -10.233889      -278.4783
   3   2.0000     -10.229343      -278.3546
   4   2.0000     -10.180397      -277.0227
   5   2.0000     -10.175284      -276.8835
   6   2.0000     -10.174475      -276.8615
   7   2.0000     -10.173967      -276.8477
   8   2.0000     -10.173385      -276.8319
   9   2.0000     -10.173136      -276.8251
  10   2.0000     -10.172930      -276.8195
  11   2.0000     -10.172263      -276.8013
  12   2.0000     -10.170239      -276.7463
  13   2.0000     -10.169301      -276.7207
  14   2.0000     -10.168683      -276.7039
  15   2.0000     -10.168396      -276.6961
  16   2.0000     -10.165756      -276.6243
  17   2.0000     -10.165479      -276.6168
  18   2.0000     -10.159773      -276.4615
  19   2.0000     -10.151775      -276.2439
  20   2.0000      -1.063061       -28.9274
  21   2.0000      -1.060839       -28.8669
  22   2.0000      -0.866491       -23.5784
  23   2.0000      -0.850025       -23.1303
  24   2.0000      -0.802584       -21.8394
  25   2.0000      -0.794459       -21.6183
  26   2.0000      -0.769977       -20.9521
  27   2.0000      -0.746591       -20.3158
  28   2.0000      -0.743220       -20.2240
  29   2.0000      -0.718901       -19.5623
  30   2.0000      -0.679378       -18.4868
  31   2.0000      -0.673559       -18.3285
  32   2.0000      -0.631837       -17.1932
  33   2.0000      -0.626736       -17.0543
  34   2.0000      -0.598361       -16.2822
  35   2.0000      -0.572606       -15.5814
  36   2.0000      -0.555458       -15.1148
  37   2.0000      -0.549310       -14.9475
  38   2.0000      -0.544506       -14.8168
  39   2.0000      -0.539157       -14.6712
  40   2.0000      -0.502107       -13.6630
  41   2.0000      -0.483092       -13.1456
  42   2.0000      -0.478337       -13.0162
  43   2.0000      -0.460065       -12.5190
  44   2.0000      -0.453135       -12.3304
  45   2.0000      -0.445685       -12.1277
  46   2.0000      -0.435573       -11.8525
  47   2.0000      -0.433984       -11.8093
  48   2.0000      -0.432289       -11.7632
  49   2.0000      -0.427110       -11.6223
  50   2.0000      -0.410450       -11.1689
  51   2.0000      -0.407866       -11.0986
  52   2.0000      -0.405495       -11.0341
  53   2.0000      -0.398946       -10.8559
  54   2.0000      -0.394268       -10.7286
  55   2.0000      -0.381032       -10.3684
  56   2.0000      -0.380007       -10.3405
  57   2.0000      -0.362652        -9.8683
  58   2.0000      -0.357723        -9.7341
  59   2.0000      -0.348770        -9.4905
  60   2.0000      -0.343360        -9.3433
  61   2.0000      -0.339824        -9.2471
  62   2.0000      -0.332947        -9.0600
  63   2.0000      -0.331566        -9.0224
  64   2.0000      -0.325904        -8.8683
  65   2.0000      -0.264834        -7.2065
  66   2.0000      -0.261788        -7.1236
  67   2.0000      -0.255260        -6.9460
  68   2.0000      -0.245727        -6.6866
  69   2.0000      -0.228481        -6.2173
  70   2.0000      -0.207459        -5.6453
  71   0.0000      -0.025983        -0.7070
  72   0.0000      -0.011685        -0.3180
  73   0.0000      -0.004010        -0.1091
  74   0.0000       0.008479         0.2307
  75   0.0000       0.019927         0.5422

MULLIKEN ATOMIC CHARGES
-----------------------
   0 O :   -0.405099
   1 O :   -0.407414
   2 C :    0.059146
   3 C :    0.166555
   4 C :    0.063108
   5 C :   -0.220907
   6 C :    0.123925
   7 C :   -0.240027
   8 C :    0.209230
   9 C :   -0.220397
  10 C :    0.254299
  11 C :   -0.166870
  12 C :   -0.196110
  13 C :   -0.177051
  14 C :   -0.195409
  15 C :   -0.202864
  16 C :   -0.109718
  17 C :   -0.087474
  18 C :   -0.246100
  19 C :   -0.261934
  20 H :    0.097731
  21 H :    0.127631
  22 H :    0.117962
  23 H :    0.103068
  24 H :    0.108898
  25 H :    0.104603
  26 H :    0.101350
  27 H :    0.097244
  28 H :    0.087336
  29 H :    0.085860
  30 H :    0.102233
  31 H :    0.101782
  32 H :    0.304475
  33 H :    0.305995
  34 H :    0.104769
  35 H :    0.100350
  36 H :    0.109767
  37 H :    0.100057
Sum of atomic charges:   -0.0000000

LOEWDIN ATOMIC CHARGES
----------------------
   0 O :    0.084735
   1 O :    0.084585
   2 C :   -0.079115
   3 C :   -0.106622
   4 C :   -0.116978
   5 C :   -0.060928
   6 C :   -0.149526
   7 C :   -0.063861
   8 C :   -0.229226
   9 C :   -0.104123
  10 C :   -0.234879
  11 C :   -0.195525
  12 C :   -0.200145
  13 C :   -0.119422
  14 C :   -0.145324
  15 C :   -0.145314
  16 C :   -0.186279
  17 C :   -0.187408
  18 C :   -0.213990
  19 C :   -0.217975
  20 H :    0.152241
  21 H :    0.155104
  22 H :    0.147605
  23 H :    0.147155
  24 H :    0.147915
  25 H :    0.146632
  26 H :    0.145789
  27 H :    0.143564
  28 H :    0.139605
  29 H :    0.139778
  30 H :    0.138759
  31 H :    0.139577
  32 H :    0.184116
  33 H :    0.184762
  34 H :    0.118041
  35 H :    0.119374
  36 H :    0.119445
  37 H :    0.117858

  Mayer bond orders larger than 0.100000
B(  0-O ,  8-C ) :   1.1558 B(  0-O , 32-H ) :   0.8873 B(  1-O , 10-C ) :   1.1401
B(  1-O , 33-H ) :   0.8887 B(  2-C ,  3-C ) :   0.8835 B(  2-C ,  7-C ) :   1.3831
B(  2-C ,  8-C ) :   1.3215 B(  3-C ,  5-C ) :   1.3546 B(  3-C ,  9-C ) :   1.3835
B(  4-C ,  5-C ) :   1.4252 B(  4-C , 10-C ) :   1.3328 B(  4-C , 11-C ) :   0.9117
B(  5-C , 20-H ) :   0.9718 B(  6-C ,  7-C ) :   1.3835 B(  6-C , 12-C ) :   0.9063
B(  6-C , 13-C ) :   1.3893 B(  7-C , 21-H ) :   0.9585 B(  8-C , 15-C ) :   1.3786
B(  9-C , 14-C ) :   1.4249 B(  9-C , 22-H ) :   0.9485 B( 10-C , 14-C ) :   1.3577
B( 11-C , 16-C ) :   0.9711 B( 11-C , 23-H ) :   0.9712 B( 11-C , 24-H ) :   0.9614
B( 12-C , 17-C ) :   0.9686 B( 12-C , 25-H ) :   0.9734 B( 12-C , 26-H ) :   0.9643
B( 13-C , 15-C ) :   1.4096 B( 13-C , 27-H ) :   0.9621 B( 14-C , 28-H ) :   0.9599
B( 15-C , 29-H ) :   0.9618 B( 16-C , 18-C ) :   1.9390 B( 16-C , 30-H ) :   0.9548
B( 17-C , 19-C ) :   1.9275 B( 17-C , 31-H ) :   0.9539 B( 18-C , 34-H ) :   0.9648
B( 18-C , 35-H ) :   0.9597 B( 19-C , 36-H ) :   0.9653 B( 19-C , 37-H ) :   0.9636

FINAL SINGLE POINT ENERGY      -846.962452260103

DIPOLE MOMENT
-------------

Method             : SCF
Type of density    : Electron Density
Multiplicity       :   1
Irrep              :   0
Energy             :  -846.9624522601025092 Eh
Relativity type    :
Basis              : AO
                                X                 Y                 Z
Electronic contribution:     -2.405864436       4.454543314       0.296892421
Nuclear contribution   :      2.838977935      -4.105754795      -0.114510112
                        -----------------------------------------
Total Dipole Moment    :      0.433113499       0.348788519       0.182382310
                        -----------------------------------------
Magnitude (a.u.)       :      0.585238448
Magnitude (Debye)      :      1.487557916

Rotational constants in cm-1:             0.021141             0.005463             0.004679
Rotational constants in MHz :           633.799005           163.763763           140.282294

                             ****ORCA TERMINATED NORMALLY****
TOTAL RUN TIME: 0 days 0 hours 0 minutes 46 seconds 236 msec
