                         Program Version 6.0.1  -  RELEASE   -
|  1> ! B3LYP def2-TZVP TightSCF CPCM(water) Freq
|  2>
|  3> %maxcore 5000
|  4>
|  5> %pal
|  6> nprocs 25
|  7> end
|  8>
|  9> * xyz 0 1
| 10> O           1.56925132208646      1.73146329795256      2.26339267307623
| 11>   O          -3.67103881381609     -1.78396674684408      2.24919568240394
| 12>   C           1.32298214750540      0.15813177817813      0.41244170819831
| 13>   C           0.01026992218601     -0.35715263102463      0.88066709912023
| 14>   C          -2.36204708261546     -0.78977647212764      0.45531954565843
| 15>   C          -1.11479017457772     -0.31582183056675      0.05372457907485
| 16>   C           3.13777935572227      0.06760706975248     -1.22915047093636
| 17>   C           1.89178328608903     -0.34252416533483     -0.76145635854118
| 18>   C           2.03050731405997      1.14262913568656      1.12767866682581
| 19>   C          -0.13609279905636     -0.92391087479348      2.15003482413752
| 20>   C          -2.47206312298177     -1.34525329562248      1.73771784752254
| 21>   C          -3.56880435061691     -0.66444354841807     -0.45273250152919
| 22>   C           3.72300519123121     -0.51977587943278     -2.49994287598414
| 23>   C           3.82673380288089      1.02301911509640     -0.48352774522334
| 24>   C          -1.36042228456200     -1.42152720810639      2.56972774508222
| 25>   C           3.28103388153744      1.55711767282999      0.67401631009486
| 26>   C          -4.22421413155372     -1.98077492628773     -0.78130137904200
| 27>   C           2.91192762594487     -0.21446696844266     -3.72903572697175
| 28>   C          -5.50923916201718     -2.26582563542799     -0.58746124541235
| 29>   C           2.40237708369532     -1.12071109497327     -4.55506659877773
| 30>   H          -1.02266738422436      0.13076146343937     -0.92977814064230
| 31>   H           1.34379380613431     -1.09859688785206     -1.31304991894630
| 32>   H           0.71893096817106     -0.98759819233246      2.81102037673529
| 33>   H          -4.31096569981778      0.00634830650246     -0.00608647870050
| 34>   H          -3.24415115181367     -0.19087736645252     -1.38353423329186
| 35>   H           3.83031433194644     -1.60467295040337     -2.40185400108893
| 36>   H           4.73297255457291     -0.11739316574841     -2.63161022118056
| 37>   H           4.80270232246709      1.36111096795762     -0.81368149477096
| 38>   H          -1.46803873498969     -1.87987692977737      3.54473428014979
| 39>   H           3.80528949588293      2.31607526262915      1.24052339530852
| 40>   H          -3.57065985787195     -2.74012220185047     -1.20342210391636
| 41>   H           2.74099014027708      0.84093428089240     -3.92765056945250
| 42>   H           0.60856875158055      1.64263749729515      2.36699536143964
| 43>   H          -4.26227907495831     -2.04122828048572      1.52540067029337
| 44>   H          -5.92260738968931     -3.23108895139129     -0.85125228907245
| 45>   H          -6.19906749750153     -1.53394745339190     -0.17882590813283
| 46>   H           1.82870563313175     -0.83492271959328     -5.42810316091907
| 47>   H           2.54508357275352     -2.18357786196266     -4.39030258653011
| 48>   H          -5.18160095169991      0.83661286613300      3.39103768289815
| 49>   H          -3.56572127683955     -0.34800708850068      4.75883281321729
| 50>   O          -2.24043083840206      1.23182418602842      4.61761028598793
| 51>   C          -3.55422763514577      0.73179580239404      4.90443445580048
| 52>   C          -4.43171102580495      1.44986286625846      3.88505592719887
| 53>   C          -2.24369105284293      1.85875957579859      3.42854626620275
| 54>   O          -1.29016003444481      2.29030360260618      2.86627729730657
| 55>   O          -3.51945712775260      1.92885970602518      2.93553582011413
| 56>   F          -5.07959408208480      2.51980255730538      4.46300717290054
| 57>   H          -3.82160566877522      0.99266332518347      5.92574865541446
| 58> *
| 59>
| 60>                          ****END OF INPUT****

CARTESIAN COORDINATES (ANGSTROEM)
---------------------------------
  O      1.569251    1.731463    2.263393
  O     -3.671039   -1.783967    2.249196
  C      1.322982    0.158132    0.412442
  C      0.010270   -0.357153    0.880667
  C     -2.362047   -0.789776    0.455320
  C     -1.114790   -0.315822    0.053725
  C      3.137779    0.067607   -1.229150
  C      1.891783   -0.342524   -0.761456
  C      2.030507    1.142629    1.127679
  C     -0.136093   -0.923911    2.150035
  C     -2.472063   -1.345253    1.737718
  C     -3.568804   -0.664444   -0.452733
  C      3.723005   -0.519776   -2.499943
  C      3.826734    1.023019   -0.483528
  C     -1.360422   -1.421527    2.569728
  C      3.281034    1.557118    0.674016
  C     -4.224214   -1.980775   -0.781301
  C      2.911928   -0.214467   -3.729036
  C     -5.509239   -2.265826   -0.587461
  C      2.402377   -1.120711   -4.555067
  H     -1.022667    0.130761   -0.929778
  H      1.343794   -1.098597   -1.313050
  H      0.718931   -0.987598    2.811020
  H     -4.310966    0.006348   -0.006086
  H     -3.244151   -0.190877   -1.383534
  H      3.830314   -1.604673   -2.401854
  H      4.732973   -0.117393   -2.631610
  H      4.802702    1.361111   -0.813681
  H     -1.468039   -1.879877    3.544734
  H      3.805289    2.316075    1.240523
  H     -3.570660   -2.740122   -1.203422
  H      2.740990    0.840934   -3.927651
  H      0.608569    1.642637    2.366995
  H     -4.262279   -2.041228    1.525401
  H     -5.922607   -3.231089   -0.851252
  H     -6.199067   -1.533947   -0.178826
  H      1.828706   -0.834923   -5.428103
  H      2.545084   -2.183578   -4.390303
  H     -5.181601    0.836613    3.391038
  H     -3.565721   -0.348007    4.758833
  O     -2.240431    1.231824    4.617610
  C     -3.554228    0.731796    4.904434
  C     -4.431711    1.449863    3.885056
  C     -2.243691    1.858760    3.428546
  O     -1.290160    2.290304    2.866277
  O     -3.519457    1.928860    2.935536
  F     -5.079594    2.519803    4.463007
  H     -3.821606    0.992663    5.925749

 Total Charge           Charge          ....    0
 Multiplicity           Mult            ....    1
 Number of Electrons    NEL             ....  196
 Basis Dimension        Dim             ....  963

ORBITAL ENERGIES
----------------

  NO   OCC          E(Eh)            E(eV)
   0   2.0000     -24.695733      -672.0051
   1   2.0000     -19.208393      -522.6869
   2   2.0000     -19.204227      -522.5736
   3   2.0000     -19.152880      -521.1764
   4   2.0000     -19.147913      -521.0412
   5   2.0000     -19.145221      -520.9679
   6   2.0000     -10.373714      -282.2831
   7   2.0000     -10.328683      -281.0577
   8   2.0000     -10.251598      -278.9602
   9   2.0000     -10.234662      -278.4993
  10   2.0000     -10.232064      -278.4286
  11   2.0000     -10.184760      -277.1414
  12   2.0000     -10.182224      -277.0724
  13   2.0000     -10.181904      -277.0637
  14   2.0000     -10.181420      -277.0505
  15   2.0000     -10.179609      -277.0012
  16   2.0000     -10.175218      -276.8817
  17   2.0000     -10.174772      -276.8696
  18   2.0000     -10.174184      -276.8536
  19   2.0000     -10.172308      -276.8026
  20   2.0000     -10.171042      -276.7681
  21   2.0000     -10.170611      -276.7564
  22   2.0000     -10.169751      -276.7330
  23   2.0000     -10.169464      -276.7252
  24   2.0000     -10.167972      -276.6846
  25   2.0000     -10.166084      -276.6332
  26   2.0000     -10.157880      -276.4100
  27   2.0000      -1.237982       -33.6872
  28   2.0000      -1.179785       -32.1036
  29   2.0000      -1.075846       -29.2753
  30   2.0000      -1.072127       -29.1741
  31   2.0000      -1.057191       -28.7676
  32   2.0000      -1.055898       -28.7325
  33   2.0000      -0.870249       -23.6807
  34   2.0000      -0.853090       -23.2138
  35   2.0000      -0.810262       -22.0484
  36   2.0000      -0.797326       -21.6963
  37   2.0000      -0.789840       -21.4926
  38   2.0000      -0.774023       -21.0622
  39   2.0000      -0.756621       -20.5887
  40   2.0000      -0.744187       -20.2504
  41   2.0000      -0.721916       -19.6443
  42   2.0000      -0.698166       -18.9981
  43   2.0000      -0.685923       -18.6649
  44   2.0000      -0.676132       -18.3985
  45   2.0000      -0.639928       -17.4133
  46   2.0000      -0.633635       -17.2421
  47   2.0000      -0.614884       -16.7318
  48   2.0000      -0.596368       -16.2280
  49   2.0000      -0.589111       -16.0305
  50   2.0000      -0.574220       -15.6253
  51   2.0000      -0.566098       -15.4043
  52   2.0000      -0.563868       -15.3436
  53   2.0000      -0.552317       -15.0293
  54   2.0000      -0.547492       -14.8980
  55   2.0000      -0.536605       -14.6018
  56   2.0000      -0.529305       -14.4031
  57   2.0000      -0.499553       -13.5935
  58   2.0000      -0.494719       -13.4620
  59   2.0000      -0.492453       -13.4003
  60   2.0000      -0.484390       -13.1809
  61   2.0000      -0.480608       -13.0780
  62   2.0000      -0.477314       -12.9884
  63   2.0000      -0.468996       -12.7620
  64   2.0000      -0.457372       -12.4457
  65   2.0000      -0.443913       -12.0795
  66   2.0000      -0.441538       -12.0149
  67   2.0000      -0.437286       -11.8992
  68   2.0000      -0.433276       -11.7900
  69   2.0000      -0.430098       -11.7036
  70   2.0000      -0.427698       -11.6382
  71   2.0000      -0.418591       -11.3904
  72   2.0000      -0.415317       -11.3014
  73   2.0000      -0.414012       -11.2658
  74   2.0000      -0.411308       -11.1923
  75   2.0000      -0.404019       -10.9939
  76   2.0000      -0.399629       -10.8745
  77   2.0000      -0.393167       -10.6986
  78   2.0000      -0.387447       -10.5430
  79   2.0000      -0.371702       -10.1145
  80   2.0000      -0.370271       -10.0756
  81   2.0000      -0.364920        -9.9300
  82   2.0000      -0.360890        -9.8203
  83   2.0000      -0.356523        -9.7015
  84   2.0000      -0.355040        -9.6611
  85   2.0000      -0.349549        -9.5117
  86   2.0000      -0.346608        -9.4317
  87   2.0000      -0.337704        -9.1894
  88   2.0000      -0.335434        -9.1276
  89   2.0000      -0.334871        -9.1123
  90   2.0000      -0.329456        -8.9650
  91   2.0000      -0.322063        -8.7638
  92   2.0000      -0.273783        -7.4500
  93   2.0000      -0.265977        -7.2376
  94   2.0000      -0.260573        -7.0905
  95   2.0000      -0.255819        -6.9612
  96   2.0000      -0.232196        -6.3184
  97   2.0000      -0.215515        -5.8645
  98   0.0000      -0.026274        -0.7149
  99   0.0000      -0.022970        -0.6250
 100   0.0000      -0.005346        -0.1455
 101   0.0000       0.001952         0.0531
 102   0.0000       0.002667         0.0726

MULLIKEN ATOMIC CHARGES
-----------------------
   0 O :   -0.443686
   1 O :   -0.449139
   2 C :    0.101717
   3 C :    0.081067
   4 C :    0.054181
   5 C :   -0.277591
   6 C :    0.094759
   7 C :   -0.272680
   8 C :    0.231379
   9 C :   -0.202006
  10 C :    0.267897
  11 C :   -0.220277
  12 C :   -0.174091
  13 C :   -0.178121
  14 C :   -0.263892
  15 C :   -0.265062
  16 C :   -0.184438
  17 C :   -0.131683
  18 C :   -0.302617
  19 C :   -0.327554
  20 H :    0.142217
  21 H :    0.144477
  22 H :    0.136544
  23 H :    0.139053
  24 H :    0.133885
  25 H :    0.115851
  26 H :    0.124874
  27 H :    0.130375
  28 H :    0.134127
  29 H :    0.124702
  30 H :    0.136604
  31 H :    0.127482
  32 H :    0.339981
  33 H :    0.348285
  34 H :    0.146381
  35 H :    0.146980
  36 H :    0.136666
  37 H :    0.130998
  38 H :    0.143379
  39 H :    0.150595
  40 O :   -0.262528
  41 C :   -0.025942
  42 C :    0.249835
  43 C :    0.452164
  44 O :   -0.354793
  45 O :   -0.257378
  46 F :   -0.236579
  47 H :    0.163602
Sum of atomic charges:   -0.0000000

LOEWDIN ATOMIC CHARGES
----------------------
   0 O :    0.073060
   1 O :    0.066520
   2 C :   -0.096959
   3 C :   -0.125905
   4 C :   -0.128292
   5 C :   -0.073379
   6 C :   -0.154783
   7 C :   -0.073802
   8 C :   -0.245960
   9 C :   -0.109839
  10 C :   -0.242975
  11 C :   -0.197744
  12 C :   -0.199145
  13 C :   -0.122042
  14 C :   -0.127089
  15 C :   -0.131803
  16 C :   -0.200017
  17 C :   -0.194633
  18 C :   -0.216821
  19 C :   -0.229578
  20 H :    0.158506
  21 H :    0.158262
  22 H :    0.155713
  23 H :    0.155390
  24 H :    0.158649
  25 H :    0.150260
  26 H :    0.152697
  27 H :    0.151575
  28 H :    0.154118
  29 H :    0.150691
  30 H :    0.147554
  31 H :    0.143308
  32 H :    0.180783
  33 H :    0.189592
  34 H :    0.127175
  35 H :    0.128538
  36 H :    0.123190
  37 H :    0.123325
  38 H :    0.146262
  39 H :    0.144693
  40 O :    0.272523
  41 C :   -0.220165
  42 C :   -0.378898
  43 C :   -0.588086
  44 O :    0.099496
  45 O :    0.285983
  46 F :    0.110883
  47 H :    0.149166

  Mayer bond orders larger than 0.100000
B(  0-O ,  8-C ) :   1.1168 B(  0-O , 32-H ) :   0.8384 B(  1-O , 10-C ) :   1.0533
B(  1-O , 33-H ) :   0.8427 B(  2-C ,  3-C ) :   0.8759 B(  2-C ,  7-C ) :   1.2969
B(  2-C ,  8-C ) :   1.2398 B(  3-C ,  5-C ) :   1.3848 B(  3-C ,  9-C ) :   1.3234
B(  4-C ,  5-C ) :   1.3621 B(  4-C , 10-C ) :   1.2682 B(  4-C , 11-C ) :   0.9373
B(  5-C , 20-H ) :   0.9678 B(  6-C ,  7-C ) :   1.3742 B(  6-C , 12-C ) :   0.9306
B(  6-C , 13-C ) :   1.3550 B(  7-C , 21-H ) :   0.9703 B(  8-C , 15-C ) :   1.4014
B(  9-C , 14-C ) :   1.3893 B(  9-C , 22-H ) :   1.0010 B( 10-C , 14-C ) :   1.3592
B( 11-C , 16-C ) :   0.9501 B( 11-C , 23-H ) :   0.9665 B( 11-C , 24-H ) :   0.9578
B( 12-C , 17-C ) :   0.9543 B( 12-C , 25-H ) :   0.9582 B( 12-C , 26-H ) :   0.9653
B( 13-C , 15-C ) :   1.4197 B( 13-C , 27-H ) :   0.9840 B( 14-C , 28-H ) :   0.9983
B( 15-C , 29-H ) :   0.9938 B( 16-C , 18-C ) :   1.8921 B( 16-C , 30-H ) :   0.9560
B( 17-C , 19-C ) :   1.9156 B( 17-C , 31-H ) :   0.9541 B( 18-C , 34-H ) :   0.9656
B( 18-C , 35-H ) :   0.9588 B( 19-C , 36-H ) :   0.9668 B( 19-C , 37-H ) :   0.9616
B( 38-H , 42-C ) :   0.9671 B( 39-H , 41-C ) :   0.9406 B( 40-O , 41-C ) :   0.8989
B( 40-O , 43-C ) :   1.1931 B( 41-C , 42-C ) :   0.9883 B( 41-C , 47-H ) :   0.9494
B( 42-C , 45-O ) :   0.9849 B( 42-C , 46-F ) :   1.0239 B( 43-C , 44-O ) :   2.0020
B( 43-C , 45-O ) :   1.1012

FINAL SINGLE POINT ENERGY     -1288.630613424267

DIPOLE MOMENT
-------------

Method             : SCF
Type of density    : Electron Density
Multiplicity       :   1
Irrep              :   0
Energy             : -1288.6306134242668122 Eh
Relativity type    :
Basis              : AO
                                X                 Y                 Z
Electronic contribution:     -9.591649364      14.047322525      24.612954643
Nuclear contribution   :      6.931175733     -15.913152381     -24.581858436
                        -----------------------------------------
Total Dipole Moment    :     -2.660473631      -1.865829856       0.031096206
                        -----------------------------------------
Magnitude (a.u.)       :      3.249678133
Magnitude (Debye)      :      8.260025378

VIBRATIONAL FREQUENCIES
-----------------------

Scaling factor for frequencies =  1.000000000  (already applied!)

     0:       0.00 cm**-1
     1:       0.00 cm**-1
     2:       0.00 cm**-1
     3:       0.00 cm**-1
     4:       0.00 cm**-1
     5:       0.00 cm**-1
     6:     -30.57 cm**-1  ***imaginary mode***
     7:     -18.37 cm**-1  ***imaginary mode***
     8:     -13.49 cm**-1  ***imaginary mode***
     9:      15.42 cm**-1
    10:      20.78 cm**-1
    11:      38.46 cm**-1
    12:      44.39 cm**-1
    13:      49.53 cm**-1
    14:      54.54 cm**-1
    15:      57.15 cm**-1
    16:      70.27 cm**-1
    17:      84.48 cm**-1
    18:     106.59 cm**-1
    19:     112.80 cm**-1
    20:     120.82 cm**-1
    21:     143.41 cm**-1
    22:     185.66 cm**-1
    23:     190.51 cm**-1
    24:     195.49 cm**-1
    25:     217.74 cm**-1
    26:     266.03 cm**-1
    27:     289.41 cm**-1
    28:     316.93 cm**-1
    29:     330.01 cm**-1
    30:     361.84 cm**-1
    31:     377.39 cm**-1
    32:     385.21 cm**-1
    33:     392.85 cm**-1
    34:     396.28 cm**-1
    35:     408.14 cm**-1
    36:     444.21 cm**-1
    37:     458.13 cm**-1
    38:     474.97 cm**-1
    39:     477.19 cm**-1
    40:     496.39 cm**-1
    41:     499.99 cm**-1
    42:     508.91 cm**-1
    43:     546.62 cm**-1
    44:     565.20 cm**-1
    45:     600.71 cm**-1
    46:     615.23 cm**-1
    47:     626.25 cm**-1
    48:     657.68 cm**-1
    49:     688.36 cm**-1
    50:     721.65 cm**-1
    51:     736.50 cm**-1
    52:     759.10 cm**-1
    53:     762.72 cm**-1
    54:     767.19 cm**-1
    55:     791.18 cm**-1
    56:     803.99 cm**-1
    57:     822.86 cm**-1
    58:     844.56 cm**-1
    59:     849.62 cm**-1
    60:     866.40 cm**-1
    61:     867.23 cm**-1
    62:     904.81 cm**-1
    63:     905.90 cm**-1
    64:     915.84 cm**-1
    65:     924.98 cm**-1
    66:     928.51 cm**-1
    67:     939.15 cm**-1
    68:     942.86 cm**-1
    69:     949.92 cm**-1
    70:     962.71 cm**-1
    71:     964.35 cm**-1
    72:     967.75 cm**-1
    73:     970.41 cm**-1
    74:     998.03 cm**-1
    75:    1033.94 cm**-1
    76:    1040.29 cm**-1
    77:    1066.78 cm**-1
    78:    1070.45 cm**-1
    79:    1075.92 cm**-1
    80:    1112.63 cm**-1
    81:    1115.99 cm**-1
    82:    1117.02 cm**-1
    83:    1138.81 cm**-1
    84:    1140.29 cm**-1
    85:    1143.78 cm**-1
    86:    1170.98 cm**-1
    87:    1182.94 cm**-1
    88:    1193.86 cm**-1
    89:    1212.48 cm**-1
    90:    1233.26 cm**-1
    91:    1233.36 cm**-1
    92:    1243.52 cm**-1
    93:    1257.54 cm**-1
    94:    1271.88 cm**-1
    95:    1298.84 cm**-1
    96:    1308.10 cm**-1
    97:    1318.31 cm**-1
    98:    1321.09 cm**-1
    99:    1323.65 cm**-1
   100:    1330.74 cm**-1
   101:    1342.13 cm**-1
   102:    1348.01 cm**-1
   103:    1362.74 cm**-1
   104:    1369.95 cm**-1
   105:    1383.19 cm**-1
   106:    1413.17 cm**-1
   107:    1438.13 cm**-1
   108:    1446.29 cm**-1
   109:    1446.71 cm**-1
   110:    1455.76 cm**-1
   111:    1463.06 cm**-1
   112:    1468.27 cm**-1
   113:    1496.43 cm**-1
   114:    1519.03 cm**-1
   115:    1529.65 cm**-1
   116:    1612.56 cm**-1
   117:    1617.83 cm**-1
   118:    1645.93 cm**-1
   119:    1650.36 cm**-1
   120:    1686.95 cm**-1
   121:    1695.56 cm**-1
   122:    1862.37 cm**-1
   123:    3013.10 cm**-1
   124:    3015.20 cm**-1
   125:    3046.29 cm**-1
   126:    3054.86 cm**-1
   127:    3088.93 cm**-1
   128:    3122.56 cm**-1
   129:    3125.13 cm**-1
   130:    3129.81 cm**-1
   131:    3132.55 cm**-1
   132:    3142.20 cm**-1
   133:    3155.32 cm**-1
   134:    3160.93 cm**-1
   135:    3161.62 cm**-1
   136:    3166.33 cm**-1
   137:    3177.32 cm**-1
   138:    3187.78 cm**-1
   139:    3191.57 cm**-1
   140:    3208.51 cm**-1
   141:    3212.64 cm**-1
   142:    3675.46 cm**-1
   143:    3676.78 cm**-1

IR SPECTRUM
-----------

 Mode   freq       eps      Int      T**2         TX        TY        TZ
       cm**-1   L/(mol*cm) km/mol    a.u.
----------------------------------------------------------------------------
  9:     15.42   0.000093    0.47  0.001881  (-0.039401 -0.014830 -0.010443)
 10:     20.78   0.000286    1.44  0.004293  (-0.037658  0.023420  0.048233)
 11:     38.46   0.000598    3.02  0.004853  (-0.008067 -0.029463 -0.062611)
 12:     44.39   0.000188    0.95  0.001323  (-0.025724 -0.002099 -0.025623)
 13:     49.53   0.000409    2.07  0.002575  ( 0.015423 -0.020355 -0.043849)
 14:     54.54   0.000618    3.12  0.003537  (-0.055731  0.009449  0.018489)
 15:     57.15   0.000036    0.18  0.000199  ( 0.011836 -0.004468  0.006224)
 16:     70.27   0.000032    0.16  0.000141  ( 0.009458 -0.000722 -0.007162)
 17:     84.48   0.000057    0.29  0.000211  ( 0.008618 -0.006934 -0.009422)
 18:    106.59   0.000073    0.37  0.000213  (-0.004471 -0.007571 -0.011641)
 19:    112.80   0.000135    0.68  0.000375  (-0.015512 -0.009662  0.006382)
 20:    120.82   0.001572    7.94  0.004059  (-0.002128  0.049782  0.039707)
 21:    143.41   0.000286    1.45  0.000622  ( 0.008347  0.016462  0.016788)
 22:    185.66   0.000355    1.80  0.000597  (-0.010638  0.015379 -0.015730)
 23:    190.51   0.000359    1.82  0.000589  ( 0.003227  0.001204  0.024019)
 24:    195.49   0.000288    1.45  0.000459  ( 0.012175 -0.006035  0.016576)
 25:    217.74   0.000098    0.49  0.000140  ( 0.008528 -0.005624  0.005984)
 26:    266.03   0.000047    0.24  0.000055  ( 0.005405  0.004557  0.002245)
 27:    289.41   0.000441    2.23  0.000476  ( 0.014744  0.014293  0.007364)
 28:    316.93   0.000058    0.29  0.000057  (-0.000413 -0.006541 -0.003751)
 29:    330.01   0.002343   11.84  0.002215  ( 0.025953 -0.032249 -0.022396)
 30:    361.84   0.000694    3.51  0.000599  ( 0.016096  0.007314 -0.016915)
 31:    377.39   0.005071   25.63  0.004193  (-0.027101  0.058790  0.001536)
 32:    385.21   0.001202    6.08  0.000974  ( 0.020601 -0.022834  0.005317)
 33:    392.85   0.001853    9.37  0.001472  ( 0.023121 -0.027838  0.012758)
 34:    396.28   0.003309   16.72  0.002606  (-0.004079 -0.024955  0.044347)
 35:    408.14   0.025123  126.96  0.019209  ( 0.087629 -0.106399 -0.014463)
 36:    444.21   0.028776  145.42  0.020215  ( 0.005607 -0.124389  0.068639)
 37:    458.13   0.002534   12.80  0.001726  ( 0.039410 -0.008129  0.010324)
 38:    474.97   0.000535    2.71  0.000352  (-0.017245  0.000093  0.007377)
 39:    477.19   0.003898   19.70  0.002549  (-0.000232  0.049012  0.012112)
 40:    496.39   0.002608   13.18  0.001640  (-0.001024  0.003199  0.040355)
 41:    499.99   0.001527    7.72  0.000953  (-0.014498  0.026158 -0.007643)
 42:    508.91   0.006295   31.81  0.003860  ( 0.023372  0.034908 -0.045772)
 43:    546.62   0.001152    5.82  0.000658  (-0.024488  0.006301  0.004275)
 44:    565.20   0.000034    0.17  0.000019  (-0.002641  0.002753  0.002117)
 45:    600.71   0.001858    9.39  0.000965  (-0.028371 -0.004697 -0.011746)
 46:    615.23   0.005133   25.94  0.002603  (-0.027924 -0.030993  0.029379)
 47:    626.25   0.001056    5.34  0.000526  (-0.018686  0.007516 -0.010980)
 48:    657.68   0.005407   27.32  0.002565  ( 0.040503 -0.030411  0.000165)
 49:    688.36   0.001757    8.88  0.000797  (-0.008132 -0.007577 -0.025943)
 50:    721.65   0.003663   18.51  0.001584  ( 0.013297 -0.024243 -0.028625)
 51:    736.50   0.007115   35.96  0.003015  (-0.043386 -0.017615  0.028673)
 52:    759.10   0.001317    6.66  0.000541  (-0.021081  0.002596  0.009505)
 53:    762.72   0.007380   37.29  0.003019  (-0.002605  0.048450  0.025792)
 54:    767.19   0.000433    2.19  0.000176  (-0.003153  0.011855  0.005058)
 55:    791.18   0.006303   31.85  0.002486  (-0.024034 -0.027120  0.034245)
 56:    803.99   0.005076   25.65  0.001970  ( 0.014739  0.014080  0.039430)
 57:    822.86   0.006395   32.32  0.002425  ( 0.013633 -0.039600 -0.025910)
 58:    844.56   0.009753   49.29  0.003604  ( 0.026483 -0.051550  0.015656)
 59:    849.62   0.008733   44.13  0.003208  (-0.011984  0.055270  0.003047)
 60:    866.40   0.009936   50.21  0.003579  ( 0.042558 -0.039536 -0.014294)
 61:    867.23   0.001668    8.43  0.000600  (-0.007065  0.014444  0.018479)
 62:    904.81   0.001937    9.79  0.000668  ( 0.000246  0.010382  0.023670)
 63:    905.90   0.001681    8.49  0.000579  (-0.007087 -0.021660 -0.007719)
 64:    915.84   0.001792    9.06  0.000611  (-0.012450 -0.020174  0.006976)
 65:    924.98   0.009254   46.77  0.003122  (-0.048891  0.026351 -0.006106)
 66:    928.51   0.002997   15.14  0.001007  (-0.013518 -0.020254 -0.020351)
 67:    939.15   0.001453    7.34  0.000483  ( 0.001366 -0.012365 -0.018108)
 68:    942.86   0.010631   53.72  0.003519  (-0.040270 -0.000830  0.043545)
 69:    949.92   0.008153   41.20  0.002678  ( 0.049940  0.005352 -0.012480)
 70:    962.71   0.000124    0.63  0.000040  ( 0.003942 -0.001400  0.004758)
 71:    964.35   0.014862   75.11  0.004809  ( 0.006042 -0.025223  0.064317)
 72:    967.75   0.000302    1.53  0.000098  ( 0.003608 -0.004277 -0.008137)
 73:    970.41   0.000184    0.93  0.000059  (-0.004634  0.004027 -0.004630)
 74:    998.03   0.086888  439.09  0.027168  ( 0.153647 -0.033125 -0.049630)
 75:   1033.94   0.005532   27.96  0.001670  (-0.031647  0.000792  0.025839)
 76:   1040.29   0.006708   33.90  0.002012  ( 0.019003 -0.009293  0.039557)
 77:   1066.78   0.010568   53.40  0.003091  ( 0.046348 -0.030501  0.003597)
 78:   1070.45   0.000505    2.55  0.000147  (-0.011533  0.000106 -0.003769)
 79:   1075.92   0.047620  240.65  0.013812  (-0.113016  0.018861 -0.026143)
 80:   1112.63   0.000124    0.63  0.000035  ( 0.003093  0.004908  0.001035)
 81:   1115.99   0.000627    3.17  0.000175  (-0.012599 -0.004057  0.000244)
 82:   1117.02   0.018923   95.63  0.005287  (-0.029811 -0.058871 -0.030530)
 83:   1138.81   0.018835   95.19  0.005161  (-0.016271 -0.013710  0.068620)
 84:   1140.29   0.038494  194.53  0.010535  (-0.035552 -0.036000  0.089301)
 85:   1143.78   0.042705  215.81  0.011651  (-0.002406 -0.056520  0.091930)
 86:   1170.98   0.006172   31.19  0.001645  ( 0.008007  0.037448  0.013354)
 87:   1182.94   0.056663  286.35  0.014948  (-0.018874  0.067144  0.100415)
 88:   1193.86   0.030513  154.20  0.007976  (-0.068144 -0.042166  0.039424)
 89:   1212.48   0.021845  110.40  0.005622  ( 0.059648  0.030366 -0.033801)
 90:   1233.26   0.003488   17.63  0.000883  ( 0.021382  0.019251  0.007413)
 91:   1233.36   0.006495   32.82  0.001643  ( 0.036387  0.014009 -0.011094)
 92:   1243.52   0.008399   42.44  0.002108  ( 0.016586 -0.017891 -0.038891)
 93:   1257.54   0.031531  159.35  0.007825  ( 0.058526 -0.021446 -0.062765)
 94:   1271.88   0.012545   63.39  0.003078  ( 0.038141  0.028597  0.028378)
 95:   1298.84   0.016440   83.08  0.003950  (-0.029542  0.017897  0.052506)
 96:   1308.10   0.000342    1.73  0.000082  (-0.006873  0.002957  0.005066)
 97:   1318.31   0.001186    5.99  0.000281  (-0.006217  0.000361  0.015553)
 98:   1321.09   0.001459    7.37  0.000345  (-0.018072 -0.001008  0.004113)
 99:   1323.65   0.009677   48.90  0.002281  ( 0.044597  0.007264 -0.015483)
100:   1330.74   0.001263    6.38  0.000296  (-0.015771 -0.001728 -0.006667)
101:   1342.13   0.000584    2.95  0.000136  ( 0.001289 -0.003594 -0.011014)
102:   1348.01   0.003991   20.17  0.000924  ( 0.007694 -0.018041 -0.023224)
103:   1362.74   0.004399   22.23  0.001007  ( 0.009577  0.009380 -0.028767)
104:   1369.95   0.008652   43.72  0.001971  ( 0.026617 -0.017535  0.030901)
105:   1383.19   0.005379   27.18  0.001214  ( 0.031414 -0.011453  0.009776)
106:   1413.17   0.003592   18.15  0.000793  ( 0.005522  0.004227 -0.027293)
107:   1438.13   0.002310   11.67  0.000501  (-0.005105  0.011994  0.018202)
108:   1446.29   0.000394    1.99  0.000085  (-0.004432 -0.008036 -0.000905)
109:   1446.71   0.000443    2.24  0.000096  (-0.006151  0.005037  0.005696)
110:   1455.76   0.001352    6.83  0.000290  (-0.015754 -0.005200  0.003824)
111:   1463.06   0.002946   14.89  0.000628  (-0.013897  0.019945 -0.006124)
112:   1468.27   0.002156   10.89  0.000458  ( 0.019912 -0.007770 -0.001132)
113:   1496.43   0.004391   22.19  0.000916  ( 0.008473 -0.015057  0.024844)
114:   1519.03   0.065343  330.22  0.013424  ( 0.081758 -0.011931 -0.081223)
115:   1529.65   0.022585  114.14  0.004608  ( 0.039329  0.047015  0.029162)
116:   1612.56   0.002927   14.79  0.000566  ( 0.003859 -0.008370 -0.021943)
117:   1617.83   0.002436   12.31  0.000470  (-0.012610 -0.015112  0.009079)
118:   1645.93   0.001263    6.38  0.000239  (-0.013236 -0.007904 -0.001352)
119:   1650.36   0.003018   15.25  0.000571  ( 0.018467 -0.004993 -0.014310)
120:   1686.95   0.006147   31.07  0.001137  (-0.029055 -0.016376  0.004981)
121:   1695.56   0.006665   33.68  0.001227  (-0.014935 -0.015260 -0.027762)
122:   1862.37   0.225257  1138.35  0.037745  (-0.154881 -0.066797  0.096408)
123:   3013.10   0.009070   45.83  0.000939  ( 0.027647 -0.012022 -0.005517)
124:   3015.20   0.005330   26.94  0.000552  ( 0.013525 -0.018257  0.005948)
125:   3046.29   0.004593   23.21  0.000470  (-0.008753 -0.019839  0.000509)
126:   3054.86   0.002632   13.30  0.000269  (-0.007853 -0.001252  0.014340)
127:   3088.93   0.001802    9.11  0.000182  ( 0.008983  0.007436 -0.006786)
128:   3122.56   0.005967   30.15  0.000596  (-0.001603 -0.024351 -0.000871)
129:   3125.13   0.002833   14.32  0.000283  ( 0.015053 -0.005735 -0.004840)
130:   3129.81   0.001277    6.45  0.000127  (-0.002328  0.003883 -0.010337)
131:   3132.55   0.002059   10.41  0.000205  ( 0.002967 -0.010994 -0.008689)
132:   3142.20   0.001704    8.61  0.000169  ( 0.009522  0.008504  0.002510)
133:   3155.32   0.000271    1.37  0.000027  (-0.001211  0.004099  0.002923)
134:   3160.93   0.002681   13.55  0.000265  (-0.011293 -0.011707 -0.000269)
135:   3161.62   0.002433   12.29  0.000240  ( 0.011984 -0.002558 -0.009484)
136:   3166.33   0.002170   10.96  0.000214  (-0.000673 -0.004690  0.013834)
137:   3177.32   0.001572    7.94  0.000154  ( 0.012125  0.002520 -0.000995)
138:   3187.78   0.003271   16.53  0.000320  (-0.010672 -0.011956 -0.007959)
139:   3191.57   0.001950    9.85  0.000191  (-0.001953  0.004236 -0.012996)
140:   3208.51   0.004157   21.01  0.000404  (-0.007356  0.014196 -0.012193)
141:   3212.64   0.002675   13.52  0.000260  (-0.000196  0.014680  0.006653)
142:   3675.46   0.121055  611.76  0.010278  ( 0.085766  0.023417  0.048723)
143:   3676.78   0.118925  601.00  0.010094  ( 0.082208 -0.012405 -0.056405)

--------------------------
THERMOCHEMISTRY AT 298.15K
--------------------------

Temperature         ...   298.15 K
Pressure            ...     1.00 atm
Total Mass          ...   372.39 AMU
Quasi RRHO          ...     True
Cut-Off Frequency   ...     1.00 cm^-1

Throughout the following assumptions are being made:
  (1) The electronic state is orbitally nondegenerate
  (2) There are no thermally accessible electronically excited states
  (3) Hindered rotations indicated by low frequency modes are not
      treated as such but are treated as vibrations and this may
      cause some error
  (4) All equations used are the standard statistical mechanics
      equations for an ideal gas
  (5) All vibrations are strictly harmonic

freq.      15.42  E(vib)   ...       0.57
freq.      20.78  E(vib)   ...       0.56
freq.      38.46  E(vib)   ...       0.54
freq.      44.39  E(vib)   ...       0.53
freq.      49.53  E(vib)   ...       0.52
freq.      54.54  E(vib)   ...       0.52
freq.      57.15  E(vib)   ...       0.51
freq.      70.27  E(vib)   ...       0.50
freq.      84.48  E(vib)   ...       0.48
freq.     106.59  E(vib)   ...       0.45
freq.     112.80  E(vib)   ...       0.45
freq.     120.82  E(vib)   ...       0.44
freq.     143.41  E(vib)   ...       0.41
freq.     185.66  E(vib)   ...       0.37
freq.     190.51  E(vib)   ...       0.36
freq.     195.49  E(vib)   ...       0.36
freq.     217.74  E(vib)   ...       0.33
freq.     266.03  E(vib)   ...       0.29
freq.     289.41  E(vib)   ...       0.27
freq.     316.93  E(vib)   ...       0.25
freq.     330.01  E(vib)   ...       0.24
freq.     361.84  E(vib)   ...       0.22
freq.     377.39  E(vib)   ...       0.21
freq.     385.21  E(vib)   ...       0.20
freq.     392.85  E(vib)   ...       0.20
freq.     396.28  E(vib)   ...       0.20
freq.     408.14  E(vib)   ...       0.19
freq.     444.21  E(vib)   ...       0.17
freq.     458.13  E(vib)   ...       0.16
freq.     474.97  E(vib)   ...       0.15
freq.     477.19  E(vib)   ...       0.15
freq.     496.39  E(vib)   ...       0.14
freq.     499.99  E(vib)   ...       0.14
freq.     508.91  E(vib)   ...       0.14
freq.     546.62  E(vib)   ...       0.12
freq.     565.20  E(vib)   ...       0.11
freq.     600.71  E(vib)   ...       0.10
freq.     615.23  E(vib)   ...       0.10
freq.     626.25  E(vib)   ...       0.09
freq.     657.68  E(vib)   ...       0.08
freq.     688.36  E(vib)   ...       0.07
freq.     721.65  E(vib)   ...       0.07
freq.     736.50  E(vib)   ...       0.06
freq.     759.10  E(vib)   ...       0.06
freq.     762.72  E(vib)   ...       0.06
freq.     767.19  E(vib)   ...       0.06
freq.     791.18  E(vib)   ...       0.05
freq.     803.99  E(vib)   ...       0.05
freq.     822.86  E(vib)   ...       0.05
freq.     844.56  E(vib)   ...       0.04
freq.     849.62  E(vib)   ...       0.04
freq.     866.40  E(vib)   ...       0.04
freq.     867.23  E(vib)   ...       0.04
freq.     904.81  E(vib)   ...       0.03
freq.     905.90  E(vib)   ...       0.03
freq.     915.84  E(vib)   ...       0.03
freq.     924.98  E(vib)   ...       0.03
freq.     928.51  E(vib)   ...       0.03
freq.     939.15  E(vib)   ...       0.03
freq.     942.86  E(vib)   ...       0.03
freq.     949.92  E(vib)   ...       0.03
freq.     962.71  E(vib)   ...       0.03
freq.     964.35  E(vib)   ...       0.03
freq.     967.75  E(vib)   ...       0.03
freq.     970.41  E(vib)   ...       0.03
freq.     998.03  E(vib)   ...       0.02
freq.    1033.94  E(vib)   ...       0.02
freq.    1040.29  E(vib)   ...       0.02
freq.    1066.78  E(vib)   ...       0.02
freq.    1070.45  E(vib)   ...       0.02
freq.    1075.92  E(vib)   ...       0.02
freq.    1112.63  E(vib)   ...       0.01
freq.    1115.99  E(vib)   ...       0.01
freq.    1117.02  E(vib)   ...       0.01
freq.    1138.81  E(vib)   ...       0.01
freq.    1140.29  E(vib)   ...       0.01
freq.    1143.78  E(vib)   ...       0.01
freq.    1170.98  E(vib)   ...       0.01
freq.    1182.94  E(vib)   ...       0.01
freq.    1193.86  E(vib)   ...       0.01
freq.    1212.48  E(vib)   ...       0.01
freq.    1233.26  E(vib)   ...       0.01
freq.    1233.36  E(vib)   ...       0.01
freq.    1243.52  E(vib)   ...       0.01
freq.    1257.54  E(vib)   ...       0.01
freq.    1271.88  E(vib)   ...       0.01
freq.    1298.84  E(vib)   ...       0.01
freq.    1308.10  E(vib)   ...       0.01
freq.    1318.31  E(vib)   ...       0.01
freq.    1321.09  E(vib)   ...       0.01
freq.    1323.65  E(vib)   ...       0.01
freq.    1330.74  E(vib)   ...       0.01
freq.    1342.13  E(vib)   ...       0.01
freq.    1348.01  E(vib)   ...       0.01
freq.    1362.74  E(vib)   ...       0.01
freq.    1369.95  E(vib)   ...       0.01
freq.    1383.19  E(vib)   ...       0.00
freq.    1413.17  E(vib)   ...       0.00
freq.    1438.13  E(vib)   ...       0.00
freq.    1446.29  E(vib)   ...       0.00
freq.    1446.71  E(vib)   ...       0.00
freq.    1455.76  E(vib)   ...       0.00
freq.    1463.06  E(vib)   ...       0.00
freq.    1468.27  E(vib)   ...       0.00
freq.    1496.43  E(vib)   ...       0.00
freq.    1519.03  E(vib)   ...       0.00
freq.    1529.65  E(vib)   ...       0.00
freq.    1612.56  E(vib)   ...       0.00
freq.    1617.83  E(vib)   ...       0.00
freq.    1645.93  E(vib)   ...       0.00
freq.    1650.36  E(vib)   ...       0.00
freq.    1686.95  E(vib)   ...       0.00
freq.    1695.56  E(vib)   ...       0.00
freq.    1862.37  E(vib)   ...       0.00
freq.    3013.10  E(vib)   ...       0.00
freq.    3015.20  E(vib)   ...       0.00
freq.    3046.29  E(vib)   ...       0.00
freq.    3054.86  E(vib)   ...       0.00
freq.    3088.93  E(vib)   ...       0.00
freq.    3122.56  E(vib)   ...       0.00
freq.    3125.13  E(vib)   ...       0.00
freq.    3129.81  E(vib)   ...       0.00
freq.    3132.55  E(vib)   ...       0.00
freq.    3142.20  E(vib)   ...       0.00
freq.    3155.32  E(vib)   ...       0.00
freq.    3160.93  E(vib)   ...       0.00
freq.    3161.62  E(vib)   ...       0.00
freq.    3166.33  E(vib)   ...       0.00
freq.    3177.32  E(vib)   ...       0.00
freq.    3187.78  E(vib)   ...       0.00
freq.    3191.57  E(vib)   ...       0.00
freq.    3208.51  E(vib)   ...       0.00
freq.    3212.64  E(vib)   ...       0.00
freq.    3675.46  E(vib)   ...       0.00
freq.    3676.78  E(vib)   ...       0.00

------------
INNER ENERGY
------------

The inner energy is: U= E(el) + E(ZPE) + E(vib) + E(rot) + E(trans)
    E(el)   - is the total energy from the electronic structure calculation

Rotational constants in cm-1:     0.009137     0.003585     0.002824

                             ****ORCA TERMINATED NORMALLY****
TOTAL RUN TIME: 0 days 0 hours 25 minutes 31 seconds 777 msec
