                         Program Version 6.0.1  -  RELEASE   -
|  1> ! Opt B3LYP def2-TZVP TightSCF TightOpt CPCM(water)
|  2>
|  3> %maxcore 5000
|  4>
|  5> %pal
|  6> nprocs 20
|  7> end
|  8>
|  9> * xyz 0 1
| 10> O         -0.01810        1.11950       -0.11210
| 11> O         -0.01830       -1.11960        0.11150
| 12> O          1.98220       -0.00010        0.00040
| 13> C         -1.35290        0.72760        0.17230
| 14> C         -1.35320       -0.72740       -0.17180
| 15> C          0.76030       -0.00010       -0.00030
| 16> H         -2.06510        1.30160       -0.42630
| 17> H         -1.54830        0.90660        1.23480
| 18> H         -2.06510       -1.30120        0.42740
| 19> H         -1.54950       -0.90630       -1.23420
| 20> *
| 21>
| 22>                          ****END OF INPUT****
 Total Charge           Charge          ....    0
 Multiplicity           Mult            ....    1
 Number of Electrons    NEL             ....   46
FINAL SINGLE POINT ENERGY      -342.385726769863
FINAL SINGLE POINT ENERGY      -342.389081563684
FINAL SINGLE POINT ENERGY      -342.389801588487
FINAL SINGLE POINT ENERGY      -342.389986569129
FINAL SINGLE POINT ENERGY      -342.390016673549
FINAL SINGLE POINT ENERGY      -342.390137634404
FINAL SINGLE POINT ENERGY      -342.390163042579
FINAL SINGLE POINT ENERGY      -342.390189484979
FINAL SINGLE POINT ENERGY      -342.390195645270
FINAL SINGLE POINT ENERGY      -342.390196813552
FINAL SINGLE POINT ENERGY      -342.390196939923
                    ***********************HURRAY********************

CARTESIAN COORDINATES (ANGSTROEM)
---------------------------------
  O      0.020150    1.108378    0.032749
  O      0.019906   -1.108430   -0.032677
  O      1.976928   -0.000234   -0.000295
  C     -1.376274    0.743859    0.175287
  C     -1.376520   -0.743588   -0.174721
  C      0.775514   -0.000117   -0.000111
  H     -1.960810    1.350878   -0.510233
  H     -1.672686    0.939292    1.204821
  H     -1.960908   -1.350479    0.511035
  H     -1.673299   -0.938959   -1.204156

 Multiplicity           Mult            ....    1
 Number of Electrons    NEL             ....   46
 Basis Dimension        Dim             ....  210

ORBITAL ENERGIES
----------------

  NO   OCC          E(Eh)            E(eV)
   0   2.0000     -19.188935      -522.1575
   1   2.0000     -19.188905      -522.1567
   2   2.0000     -19.123314      -520.3718
   3   2.0000     -10.354609      -281.7632
   4   2.0000     -10.241471      -278.6846
   5   2.0000     -10.241251      -278.6786
   6   2.0000      -1.166579       -31.7442
   7   2.0000      -1.052753       -28.6469
   8   2.0000      -1.048259       -28.5246
   9   2.0000      -0.780762       -21.2456
  10   2.0000      -0.679970       -18.5029
  11   2.0000      -0.610319       -16.6076
  12   2.0000      -0.542087       -14.7509
  13   2.0000      -0.521919       -14.2021
  14   2.0000      -0.504608       -13.7311
  15   2.0000      -0.455423       -12.3927
  16   2.0000      -0.445759       -12.1297
  17   2.0000      -0.437251       -11.8982
  18   2.0000      -0.388411       -10.5692
  19   2.0000      -0.380148       -10.3444
  20   2.0000      -0.323905        -8.8139
  21   2.0000      -0.314818        -8.5666
  22   2.0000      -0.314083        -8.5466
  23   0.0000       0.024280         0.6607
  24   0.0000       0.030768         0.8372
  25   0.0000       0.057591         1.5671
  26   0.0000       0.084526         2.3001
  27   0.0000       0.094161         2.5623

MULLIKEN ATOMIC CHARGES
-----------------------
   0 O :   -0.273213
   1 O :   -0.273208
   2 O :   -0.384039
   3 C :   -0.017852
   4 C :   -0.017858
   5 C :    0.399539
   6 H :    0.147113
   7 H :    0.136196
   8 H :    0.147119
   9 H :    0.136204
Sum of atomic charges:   -0.0000000

LOEWDIN ATOMIC CHARGES
----------------------
   0 O :    0.247796
   1 O :    0.247796
   2 O :    0.046539
   3 C :   -0.231529
   4 C :   -0.231493
   5 C :   -0.629731
   6 H :    0.139516
   7 H :    0.135794
   8 H :    0.139517
   9 H :    0.135795

  Mayer bond orders larger than 0.100000
B(  0-O ,  3-C ) :   0.8913 B(  0-O ,  5-C ) :   1.1925 B(  1-O ,  4-C ) :   0.8913
B(  1-O ,  5-C ) :   1.1925 B(  2-O ,  5-C ) :   2.0717 B(  3-C ,  4-C ) :   0.9948
B(  3-C ,  6-H ) :   0.9558 B(  3-C ,  7-H ) :   0.9588 B(  4-C ,  8-H ) :   0.9558
B(  4-C ,  9-H ) :   0.9588

FINAL SINGLE POINT ENERGY      -342.390196953664

DIPOLE MOMENT
-------------

Method             : SCF
Type of density    : Electron Density
Multiplicity       :   1
Irrep              :   0
Energy             :  -342.3901969536641445 Eh
Relativity type    :
Basis              : AO
                                X                 Y                 Z
Electronic contribution:      3.919292917      -0.000484223      -0.000743870
Nuclear contribution   :     -6.840073104       0.000768499       0.001227400
                        -----------------------------------------
Total Dipole Moment    :     -2.920780187       0.000284276       0.000483530
                        -----------------------------------------
Magnitude (a.u.)       :      2.920780241
Magnitude (Debye)      :      7.424033374

Rotational constants in cm-1:             0.270697             0.127344             0.090052
Rotational constants in MHz :          8115.296977          3817.687662          2699.689788

                             ****ORCA TERMINATED NORMALLY****
TOTAL RUN TIME: 0 days 0 hours 1 minutes 43 seconds 466 msec
