                         Program Version 6.0.1  -  RELEASE   -
|  1> ! Opt B3LYP def2-TZVP TightSCF TightOpt
|  2>
|  3> %maxcore 5000
|  4>
|  5> %pal
|  6> nprocs 20
|  7> end
|  8>
|  9> * xyz 0 1
| 10> O           1.59186812697637      1.35044825132001      2.43119315231142
| 11>   O          -3.68264411796929     -2.21010007588757      2.16576484184025
| 12>   C           1.28356903033526     -0.07924869309187      0.49158765550400
| 13>   C          -0.01786529323635     -0.62209219800717      0.95725554503819
| 14>   C          -2.34514388367706     -1.17286024634750      0.42523337943487
| 15>   C          -1.10689284922561     -0.64220773554692      0.08141007984413
| 16>   C           2.98336031960930      0.01640614041488     -1.26505406772867
| 17>   C           1.79187567598009     -0.47557445379749     -0.74583333983003
| 18>   C           2.01965827128694      0.85971420783189      1.23227188501744
| 19>   C          -0.20539384669791     -1.16135956779930      2.23495965874040
| 20>   C          -2.50031122200700     -1.70086629958993      1.71664732633398
| 21>   C          -3.48735848118849     -1.14414853856636     -0.57232070866895
| 22>   C           3.42099757479351     -0.41144643758957     -2.65389326077593
| 23>   C           3.70122503820962      0.92976528970288     -0.49596070112063
| 24>   C          -1.43207545679083     -1.69262147132196      2.60815034419785
| 25>   C           3.22551061054617      1.34826752600448      0.73980396274317
| 26>   C          -4.08294610165939     -2.49632136870478     -0.87062788566470
| 27>   C           2.75290540458670      0.41903418080540     -3.72061359959895
| 28>   C          -5.37364347514958     -2.80189513825759     -0.77129290196079
| 29>   C           1.75407204830187      0.00495062825252     -4.49080298483390
| 30>   H          -0.98431795909306     -0.21377344936065     -0.90629858745910
| 31>   H           1.22800215894165     -1.20258522070747     -1.31877914106392
| 32>   H           0.62517179512875     -1.20997134215702      2.92928626890803
| 33>   H          -4.27690775060525     -0.46977782450932     -0.22495957328416
| 34>   H          -3.10121218302754     -0.72467786189111     -1.50659784452595
| 35>   H           3.17668379160977     -1.46431203281958     -2.80733280056347
| 36>   H           4.50696834270094     -0.31889756166773     -2.74401788183364
| 37>   H           4.64197280556643      1.32498530032051     -0.86260195523244
| 38>   H          -1.57719350162152     -2.12655989145021      3.58911904521291
| 39>   H           3.77244882035292      2.06949825331343      1.33341003755847
| 40>   H          -3.38034273355771     -3.26158572623893     -1.19036333556221
| 41>   H           3.10644906193494      1.44207099302008     -3.81904935558090
| 42>   H           0.70760046653594      1.01273541214614      2.62303040612953
| 43>   H          -4.25272292312955     -2.44939727709872      1.42120167614407
| 44>   H          -5.74157805230302     -3.79119190436047     -1.01203306017028
| 45>   H          -6.11001941931250     -2.06748425845270     -0.46096465772448
| 46>   H           1.29073822168689      0.65901214057997     -5.21920319089900
| 47>   H           1.35255607966759     -0.99994225669025     -4.41396088587662
| 48> *
| 49>
| 50>                          ****END OF INPUT****
 Total Charge           Charge          ....    0
 Multiplicity           Mult            ....    1
 Number of Electrons    NEL             ....  142
FINAL SINGLE POINT ENERGY      -846.966638793367
FINAL SINGLE POINT ENERGY      -846.967668288495
FINAL SINGLE POINT ENERGY      -846.968185692275
FINAL SINGLE POINT ENERGY      -846.968298659026
FINAL SINGLE POINT ENERGY      -846.968340816560
FINAL SINGLE POINT ENERGY      -846.968361257423
FINAL SINGLE POINT ENERGY      -846.968376225710
FINAL SINGLE POINT ENERGY      -846.968397670624
FINAL SINGLE POINT ENERGY      -846.968417182902
FINAL SINGLE POINT ENERGY      -846.968430752432
FINAL SINGLE POINT ENERGY      -846.968438275308
FINAL SINGLE POINT ENERGY      -846.968439020537
FINAL SINGLE POINT ENERGY      -846.968439209995
FINAL SINGLE POINT ENERGY      -846.968439302370
                    ***********************HURRAY********************

CARTESIAN COORDINATES (ANGSTROEM)
---------------------------------
  O      1.495588    1.273394    2.476449
  O     -3.600188   -2.414129    2.164921
  C      1.247650   -0.046667    0.448588
  C     -0.031922   -0.651927    0.901311
  C     -2.394776   -1.143986    0.480605
  C     -1.179751   -0.574690    0.107190
  C      2.978109    0.182407   -1.267421
  C      1.780469   -0.358274   -0.804228
  C      1.949588    0.867677    1.254141
  C     -0.133316   -1.336571    2.119260
  C     -2.455943   -1.832835    1.702889
  C     -3.623525   -0.984700   -0.392913
  C      3.520642   -0.195049   -2.632993
  C      3.654212    1.073586   -0.435708
  C     -1.327963   -1.919886    2.513604
  C      3.146569    1.417822    0.809030
  C     -4.225636   -2.286907   -0.855203
  C      2.661129    0.288453   -3.768984
  C     -5.497459   -2.640244   -0.692192
  C      2.125794   -0.484468   -4.706520
  H     -1.128451   -0.033330   -0.830779
  H      1.242586   -1.062320   -1.429334
  H      0.741786   -1.448527    2.748459
  H     -4.388367   -0.403592    0.134251
  H     -3.339270   -0.398560   -1.271651
  H      3.636185   -1.280642   -2.707166
  H      4.522913    0.233568   -2.737604
  H      4.592004    1.508345   -0.762696
  H     -1.401407   -2.466058    3.445210
  H      3.662444    2.122286    1.448799
  H     -3.543835   -2.971107   -1.354055
  H      2.476986    1.359888   -3.794397
  H      0.622374    0.890623    2.636721
  H     -4.223150   -2.552219    1.436786
  H     -5.873226   -3.588848   -1.054240
  H     -6.212518   -1.984882   -0.204942
  H      1.517544   -0.073445   -5.502741
  H      2.281194   -1.558196   -4.714683

 Multiplicity           Mult            ....    1
 Number of Electrons    NEL             ....  142
 Basis Dimension        Dim             ....  728

ORBITAL ENERGIES
----------------

  NO   OCC          E(Eh)            E(eV)
   0   2.0000     -19.154854      -521.2301
   1   2.0000     -19.148283      -521.0513
   2   2.0000     -10.238797      -278.6118
   3   2.0000     -10.229206      -278.3508
   4   2.0000     -10.198199      -277.5071
   5   2.0000     -10.195318      -277.4287
   6   2.0000     -10.190353      -277.2936
   7   2.0000     -10.185941      -277.1735
   8   2.0000     -10.184894      -277.1450
   9   2.0000     -10.181295      -277.0471
  10   2.0000     -10.180629      -277.0290
  11   2.0000     -10.180106      -277.0148
  12   2.0000     -10.174895      -276.8730
  13   2.0000     -10.174253      -276.8555
  14   2.0000     -10.173675      -276.8398
  15   2.0000     -10.172254      -276.8011
  16   2.0000     -10.168871      -276.7090
  17   2.0000     -10.168789      -276.7068
  18   2.0000     -10.163831      -276.5719
  19   2.0000     -10.160402      -276.4786
  20   2.0000      -1.062968       -28.9248
  21   2.0000      -1.055881       -28.7320
  22   2.0000      -0.872354       -23.7379
  23   2.0000      -0.853312       -23.2198
  24   2.0000      -0.822343       -22.3771
  25   2.0000      -0.798915       -21.7396
  26   2.0000      -0.775974       -21.1153
  27   2.0000      -0.765015       -20.8171
  28   2.0000      -0.743150       -20.2221
  29   2.0000      -0.723548       -19.6887
  30   2.0000      -0.697212       -18.9721
  31   2.0000      -0.676317       -18.4035
  32   2.0000      -0.635740       -17.2994
  33   2.0000      -0.621167       -16.9028
  34   2.0000      -0.596809       -16.2400
  35   2.0000      -0.589122       -16.0308
  36   2.0000      -0.578135       -15.7319
  37   2.0000      -0.554934       -15.1005
  38   2.0000      -0.551436       -15.0053
  39   2.0000      -0.539159       -14.6713
  40   2.0000      -0.499386       -13.5890
  41   2.0000      -0.493468       -13.4279
  42   2.0000      -0.485249       -13.2043
  43   2.0000      -0.474882       -12.9222
  44   2.0000      -0.461923       -12.5696
  45   2.0000      -0.456016       -12.4088
  46   2.0000      -0.445393       -12.1198
  47   2.0000      -0.434388       -11.8203
  48   2.0000      -0.431024       -11.7288
  49   2.0000      -0.428088       -11.6489
  50   2.0000      -0.421329       -11.4649
  51   2.0000      -0.418012       -11.3747
  52   2.0000      -0.409251       -11.1363
  53   2.0000      -0.405540       -11.0353
  54   2.0000      -0.399613       -10.8740
  55   2.0000      -0.394272       -10.7287
  56   2.0000      -0.376773       -10.2525
  57   2.0000      -0.369500       -10.0546
  58   2.0000      -0.367271        -9.9940
  59   2.0000      -0.358712        -9.7611
  60   2.0000      -0.354339        -9.6420
  61   2.0000      -0.350054        -9.5255
  62   2.0000      -0.339510        -9.2385
  63   2.0000      -0.332513        -9.0481
  64   2.0000      -0.323793        -8.8109
  65   2.0000      -0.287569        -7.8251
  66   2.0000      -0.265099        -7.2137
  67   2.0000      -0.261317        -7.1108
  68   2.0000      -0.259279        -7.0553
  69   2.0000      -0.230315        -6.2672
  70   2.0000      -0.212628        -5.7859
  71   0.0000      -0.031066        -0.8454
  72   0.0000      -0.026810        -0.7295
  73   0.0000      -0.009055        -0.2464
  74   0.0000      -0.002075        -0.0565
  75   0.0000       0.002609         0.0710

MULLIKEN ATOMIC CHARGES
-----------------------
   0 O :   -0.395519
   1 O :   -0.398987
   2 C :    0.152613
   3 C :    0.058940
   4 C :    0.085868
   5 C :   -0.277912
   6 C :    0.131839
   7 C :   -0.257899
   8 C :    0.194316
   9 C :   -0.250305
  10 C :    0.255808
  11 C :   -0.250136
  12 C :   -0.197061
  13 C :   -0.139004
  14 C :   -0.197804
  15 C :   -0.227211
  16 C :   -0.146179
  17 C :   -0.087816
  18 C :   -0.264749
  19 C :   -0.265741
  20 H :    0.123440
  21 H :    0.118392
  22 H :    0.145197
  23 H :    0.129722
  24 H :    0.117469
  25 H :    0.102582
  26 H :    0.105886
  27 H :    0.095450
  28 H :    0.111826
  29 H :    0.105048
  30 H :    0.117494
  31 H :    0.101787
  32 H :    0.322107
  33 H :    0.322919
  34 H :    0.124624
  35 H :    0.123604
  36 H :    0.108653
  37 H :    0.100735
Sum of atomic charges:    0.0000000

LOEWDIN ATOMIC CHARGES
----------------------
   0 O :    0.085651
   1 O :    0.089600
   2 C :   -0.096516
   3 C :   -0.124702
   4 C :   -0.129073
   5 C :   -0.074316
   6 C :   -0.150242
   7 C :   -0.069726
   8 C :   -0.232454
   9 C :   -0.118750
  10 C :   -0.235979
  11 C :   -0.202274
  12 C :   -0.200642
  13 C :   -0.115777
  14 C :   -0.115626
  15 C :   -0.119276
  16 C :   -0.196208
  17 C :   -0.187340
  18 C :   -0.215594
  19 C :   -0.221190
  20 H :    0.152694
  21 H :    0.152947
  22 H :    0.152312
  23 H :    0.150518
  24 H :    0.153571
  25 H :    0.145785
  26 H :    0.147041
  27 H :    0.143745
  28 H :    0.149652
  29 H :    0.147513
  30 H :    0.144135
  31 H :    0.139386
  32 H :    0.184494
  33 H :    0.183092
  34 H :    0.123842
  35 H :    0.123134
  36 H :    0.118713
  37 H :    0.117859

  Mayer bond orders larger than 0.100000
B(  0-O ,  8-C ) :   1.1567 B(  0-O , 32-H ) :   0.8657 B(  1-O , 10-C ) :   1.1328
B(  1-O , 33-H ) :   0.8619 B(  2-C ,  3-C ) :   0.8597 B(  2-C ,  7-C ) :   1.3193
B(  2-C ,  8-C ) :   1.2357 B(  3-C ,  5-C ) :   1.4240 B(  3-C ,  9-C ) :   1.3281
B(  4-C ,  5-C ) :   1.3456 B(  4-C , 10-C ) :   1.2623 B(  4-C , 11-C ) :   0.9042
B(  5-C , 20-H ) :   0.9530 B(  6-C ,  7-C ) :   1.3853 B(  6-C , 12-C ) :   0.9087
B(  6-C , 13-C ) :   1.3667 B(  7-C , 21-H ) :   0.9707 B(  8-C , 15-C ) :   1.4227
B(  9-C , 14-C ) :   1.4106 B(  9-C , 22-H ) :   0.9840 B( 10-C , 14-C ) :   1.4064
B( 11-C , 16-C ) :   0.9564 B( 11-C , 23-H ) :   0.9788 B( 11-C , 24-H ) :   0.9664
B( 12-C , 17-C ) :   0.9656 B( 12-C , 25-H ) :   0.9661 B( 12-C , 26-H ) :   0.9728
B( 13-C , 15-C ) :   1.4213 B( 13-C , 27-H ) :   0.9768 B( 14-C , 28-H ) :   0.9825
B( 15-C , 29-H ) :   0.9829 B( 16-C , 18-C ) :   1.8941 B( 16-C , 30-H ) :   0.9564
B( 17-C , 19-C ) :   1.9261 B( 17-C , 31-H ) :   0.9549 B( 18-C , 34-H ) :   0.9673
B( 18-C , 35-H ) :   0.9637 B( 19-C , 36-H ) :   0.9660 B( 19-C , 37-H ) :   0.9627

FINAL SINGLE POINT ENERGY      -846.968439300085

DIPOLE MOMENT
-------------

Method             : SCF
Type of density    : Electron Density
Multiplicity       :   1
Irrep              :   0
Energy             :  -846.9684393000853788 Eh
Relativity type    :
Basis              : AO
                                X                 Y                 Z
Electronic contribution:      2.922013843       2.390322080      12.653718899
Nuclear contribution   :     -3.774486976      -2.733069677     -13.353444648
                        -----------------------------------------
Total Dipole Moment    :     -0.852473133      -0.342747596      -0.699725750
                        -----------------------------------------
Magnitude (a.u.)       :      1.154903668
Magnitude (Debye)      :      2.935531833

Rotational constants in cm-1:             0.016393             0.006213             0.004751
Rotational constants in MHz :           491.457273           186.257998           142.438346

                             ****ORCA TERMINATED NORMALLY****
TOTAL RUN TIME: 0 days 0 hours 11 minutes 10 seconds 419 msec
