                         Program Version 6.0.1  -  RELEASE   -
|  1> ! OPT B3LYP def2-TZVP TightSCF
|  2>
|  3> %maxcore 5000
|  4>
|  5> %pal
|  6> nprocs 25
|  7> end
|  8>
|  9> * xyz 0 1
| 10> O           1.58874889385723      1.83851586211085      2.18158572754868
| 11>   O          -3.67012529677869     -1.70327159825964      2.21669473058633
| 12>   C           1.32962719492519      0.21892317210287      0.37077954179091
| 13>   C           0.01484831321146     -0.28310134331662      0.84856299590582
| 14>   C          -2.35400028794839     -0.73176747355349      0.41708001671090
| 15>   C          -1.10661075553902     -0.25905975848658      0.01505772348015
| 16>   C           3.13565522290997      0.09249355846200     -1.27915886602412
| 17>   C           1.89373280464937     -0.30846485796972     -0.79433060323137
| 18>   C           2.04138068425509      1.21786877800107      1.06082666544278
| 19>   C          -0.13764740105095     -0.82711605596588      2.12731768064120
| 20>   C          -2.46893884082296     -1.26603649573672      1.70788826179897
| 21>   C          -3.55495907838976     -0.63285853971066     -0.50156267419599
| 22>   C           3.71995474721894     -0.52878028456398     -2.53450757998437
| 23>   C           3.82613634200217      1.06805800261205     -0.56092271155957
| 24>   C          -1.36315809142195     -1.32177606507855      2.54866567889149
| 25>   C           3.28756457077085      1.62593545808218      0.58798062689390
| 26>   C          -4.19057727647454     -1.96233179012724     -0.81651280983654
| 27>   C           2.86624457388774     -0.33235544864089     -3.75650028120829
| 28>   C          -5.47259212209981     -2.26261586475774     -0.62599238640333
| 29>   C           2.38478431418927     -1.30701342839992     -4.51909208870605
| 30>   H          -1.00937172386259      0.16840509775389     -0.97647221018386
| 31>   H           1.34343457485027     -1.07724242149022     -1.32552118375753
| 32>   H           0.71384166818737     -0.87962750953983      2.79396348207893
| 33>   H          -4.31001009430449      0.03369447855410     -0.07000412589802
| 34>   H          -3.22921377130236     -0.16776522919831     -1.43620564915757
| 35>   H           3.88880702542945     -1.59993506531883     -2.38384108624359
| 36>   H           4.70349291312436     -0.08138005280274     -2.71258260027932
| 37>   H           4.79849570295482      1.40178142587645     -0.90580537174155
| 38>   H          -1.47585680400982     -1.76150724782582      3.53154993170440
| 39>   H           3.81390338527176      2.39836639581392      1.13395449302092
| 40>   H          -3.52383252390136     -2.71799376993219     -1.22422035649891
| 41>   H           2.63753137110627      0.70068157179759     -4.00771084042196
| 42>   H           0.64812546989247      1.67740331230650      2.34977884131400
| 43>   H          -4.24811684104354     -1.98939673747306      1.49295549298672
| 44>   H          -5.87080106593547     -3.23719473162701     -0.87854809291734
| 45>   H          -6.17526608885844     -1.53489627444927     -0.23199448024411
| 46>   H           1.77823170075310     -1.09886812145825     -5.39188133937207
| 47>   H           2.58518086739440     -2.35072063968814     -4.30066183644929
| 48>   H          -5.04163509286989      0.92462832043408      3.17156777436495
| 49>   H          -3.80917446205089     -0.45101170536682      4.74117640115885
| 50>   O          -2.38990411243801      1.03349213559155      4.97361922592379
| 51>   C          -3.76186624272824      0.61428425511851      4.96460688366261
| 52>   C          -4.37877337237956      1.45459300958003      3.85132889721757
| 53>   C          -2.12437204121831      1.74583857233593      3.86358625100264
| 54>   O          -1.05520745157409      2.14648085887198      3.53804547413147
| 55>   O          -3.27214698793271      1.93826098829694      3.14162705965270
| 56>   F          -5.07808350594481      2.52179865169622      4.37236350815512
| 57>   H          -4.20982690456085      0.83306361413944      5.93131694134894
| 58> *
| 59>
| 60>                          ****END OF INPUT****
 Total Charge           Charge          ....    0
 Multiplicity           Mult            ....    1
 Number of Electrons    NEL             ....  196
FINAL SINGLE POINT ENERGY     -1288.606403507900
FINAL SINGLE POINT ENERGY     -1288.606394888636
FINAL SINGLE POINT ENERGY     -1288.606409450529
FINAL SINGLE POINT ENERGY     -1288.606411920802
FINAL SINGLE POINT ENERGY     -1288.606419674833
FINAL SINGLE POINT ENERGY     -1288.606432364833
FINAL SINGLE POINT ENERGY     -1288.606442112757
FINAL SINGLE POINT ENERGY     -1288.606460574445
FINAL SINGLE POINT ENERGY     -1288.606486524218
FINAL SINGLE POINT ENERGY     -1288.606514331394
FINAL SINGLE POINT ENERGY     -1288.606785449600
FINAL SINGLE POINT ENERGY     -1288.606789503928
FINAL SINGLE POINT ENERGY     -1288.606793859164
FINAL SINGLE POINT ENERGY     -1288.606797484469
FINAL SINGLE POINT ENERGY     -1288.606801861371
FINAL SINGLE POINT ENERGY     -1288.606806220584
FINAL SINGLE POINT ENERGY     -1288.606809554991
FINAL SINGLE POINT ENERGY     -1288.606811071516
FINAL SINGLE POINT ENERGY     -1288.606811807262
                    ***********************HURRAY********************

CARTESIAN COORDINATES (ANGSTROEM)
---------------------------------
  O      1.569251    1.731463    2.263393
  O     -3.671039   -1.783967    2.249196
  C      1.322982    0.158132    0.412442
  C      0.010270   -0.357153    0.880667
  C     -2.362047   -0.789776    0.455320
  C     -1.114790   -0.315822    0.053725
  C      3.137779    0.067607   -1.229150
  C      1.891783   -0.342524   -0.761456
  C      2.030507    1.142629    1.127679
  C     -0.136093   -0.923911    2.150035
  C     -2.472063   -1.345253    1.737718
  C     -3.568804   -0.664444   -0.452733
  C      3.723005   -0.519776   -2.499943
  C      3.826734    1.023019   -0.483528
  C     -1.360422   -1.421527    2.569728
  C      3.281034    1.557118    0.674016
  C     -4.224214   -1.980775   -0.781301
  C      2.911928   -0.214467   -3.729036
  C     -5.509239   -2.265826   -0.587461
  C      2.402377   -1.120711   -4.555067
  H     -1.022667    0.130761   -0.929778
  H      1.343794   -1.098597   -1.313050
  H      0.718931   -0.987598    2.811020
  H     -4.310966    0.006348   -0.006086
  H     -3.244151   -0.190877   -1.383534
  H      3.830314   -1.604673   -2.401854
  H      4.732973   -0.117393   -2.631610
  H      4.802702    1.361111   -0.813681
  H     -1.468039   -1.879877    3.544734
  H      3.805289    2.316075    1.240523
  H     -3.570660   -2.740122   -1.203422
  H      2.740990    0.840934   -3.927651
  H      0.608569    1.642637    2.366995
  H     -4.262279   -2.041228    1.525401
  H     -5.922607   -3.231089   -0.851252
  H     -6.199067   -1.533947   -0.178826
  H      1.828706   -0.834923   -5.428103
  H      2.545084   -2.183578   -4.390303
  H     -5.181601    0.836613    3.391038
  H     -3.565721   -0.348007    4.758833
  O     -2.240431    1.231824    4.617610
  C     -3.554228    0.731796    4.904434
  C     -4.431711    1.449863    3.885056
  C     -2.243691    1.858760    3.428546
  O     -1.290160    2.290304    2.866277
  O     -3.519457    1.928860    2.935536
  F     -5.079594    2.519803    4.463007
  H     -3.821606    0.992663    5.925749

 Multiplicity           Mult            ....    1
 Number of Electrons    NEL             ....  196
 Basis Dimension        Dim             ....  963

ORBITAL ENERGIES
----------------

  NO   OCC          E(Eh)            E(eV)
   0   2.0000     -24.703707      -672.2220
   1   2.0000     -19.211208      -522.7636
   2   2.0000     -19.208376      -522.6865
   3   2.0000     -19.161645      -521.4149
   4   2.0000     -19.138532      -520.7859
   5   2.0000     -19.130005      -520.5539
   6   2.0000     -10.370579      -282.1978
   7   2.0000     -10.343095      -281.4499
   8   2.0000     -10.269849      -279.4568
   9   2.0000     -10.239079      -278.6195
  10   2.0000     -10.220734      -278.1203
  11   2.0000     -10.200921      -277.5812
  12   2.0000     -10.195969      -277.4464
  13   2.0000     -10.189941      -277.2824
  14   2.0000     -10.187934      -277.2278
  15   2.0000     -10.181674      -277.0574
  16   2.0000     -10.178117      -276.9606
  17   2.0000     -10.177035      -276.9312
  18   2.0000     -10.175334      -276.8849
  19   2.0000     -10.172679      -276.8127
  20   2.0000     -10.170012      -276.7401
  21   2.0000     -10.169681      -276.7311
  22   2.0000     -10.165787      -276.6251
  23   2.0000     -10.162453      -276.5344
  24   2.0000     -10.161938      -276.5204
  25   2.0000     -10.156841      -276.3817
  26   2.0000     -10.155452      -276.3439
  27   2.0000      -1.245697       -33.8971
  28   2.0000      -1.182458       -32.1763
  29   2.0000      -1.076677       -29.2979
  30   2.0000      -1.069948       -29.1148
  31   2.0000      -1.066013       -29.0077
  32   2.0000      -1.038318       -28.2541
  33   2.0000      -0.870142       -23.6778
  34   2.0000      -0.847642       -23.0655
  35   2.0000      -0.823132       -22.3986
  36   2.0000      -0.802438       -21.8354
  37   2.0000      -0.794387       -21.6164
  38   2.0000      -0.772665       -21.0253
  39   2.0000      -0.764573       -20.8051
  40   2.0000      -0.736444       -20.0397
  41   2.0000      -0.719694       -19.5839
  42   2.0000      -0.706784       -19.2326
  43   2.0000      -0.697103       -18.9691
  44   2.0000      -0.670676       -18.2500
  45   2.0000      -0.646485       -17.5917
  46   2.0000      -0.631092       -17.1729
  47   2.0000      -0.620120       -16.8743
  48   2.0000      -0.592701       -16.1282
  49   2.0000      -0.584758       -15.9121
  50   2.0000      -0.583744       -15.8845
  51   2.0000      -0.578927       -15.7534
  52   2.0000      -0.573351       -15.6017
  53   2.0000      -0.551532       -15.0079
  54   2.0000      -0.548187       -14.9169
  55   2.0000      -0.540473       -14.7070
  56   2.0000      -0.533794       -14.5253
  57   2.0000      -0.508171       -13.8280
  58   2.0000      -0.499274       -13.5859
  59   2.0000      -0.490578       -13.3493
  60   2.0000      -0.486310       -13.2332
  61   2.0000      -0.481009       -13.0889
  62   2.0000      -0.477155       -12.9840
  63   2.0000      -0.470289       -12.7972
  64   2.0000      -0.460342       -12.5266
  65   2.0000      -0.457546       -12.4505
  66   2.0000      -0.451129       -12.2758
  67   2.0000      -0.444976       -12.1084
  68   2.0000      -0.430995       -11.7280
  69   2.0000      -0.428056       -11.6480
  70   2.0000      -0.424175       -11.5424
  71   2.0000      -0.423689       -11.5292
  72   2.0000      -0.420627       -11.4458
  73   2.0000      -0.417822       -11.3695
  74   2.0000      -0.407282       -11.0827
  75   2.0000      -0.404661       -11.0114
  76   2.0000      -0.399416       -10.8687
  77   2.0000      -0.395571       -10.7640
  78   2.0000      -0.384099       -10.4519
  79   2.0000      -0.380946       -10.3661
  80   2.0000      -0.376869       -10.2551
  81   2.0000      -0.369752       -10.0615
  82   2.0000      -0.365087        -9.9345
  83   2.0000      -0.358731        -9.7616
  84   2.0000      -0.354263        -9.6400
  85   2.0000      -0.352177        -9.5832
  86   2.0000      -0.344564        -9.3761
  87   2.0000      -0.338713        -9.2168
  88   2.0000      -0.335198        -9.1212
  89   2.0000      -0.329169        -8.9571
  90   2.0000      -0.324749        -8.8369
  91   2.0000      -0.311805        -8.4846
  92   2.0000      -0.290325        -7.9001
  93   2.0000      -0.261061        -7.1038
  94   2.0000      -0.259111        -7.0508
  95   2.0000      -0.255163        -6.9433
  96   2.0000      -0.227923        -6.2021
  97   2.0000      -0.206427        -5.6172
  98   0.0000      -0.031501        -0.8572
  99   0.0000      -0.022137        -0.6024
 100   0.0000      -0.010387        -0.2826
 101   0.0000       0.003562         0.0969
 102   0.0000       0.004806         0.1308

MULLIKEN ATOMIC CHARGES
-----------------------
   0 O :   -0.403047
   1 O :   -0.440991
   2 C :    0.109029
   3 C :    0.063969
   4 C :    0.104948
   5 C :   -0.239261
   6 C :    0.121172
   7 C :   -0.254484
   8 C :    0.219575
   9 C :   -0.177863
  10 C :    0.250937
  11 C :   -0.255853
  12 C :   -0.192507
  13 C :   -0.134539
  14 C :   -0.234981
  15 C :   -0.231021
  16 C :   -0.136685
  17 C :   -0.087293
  18 C :   -0.274513
  19 C :   -0.266084
  20 H :    0.118988
  21 H :    0.116263
  22 H :    0.119522
  23 H :    0.126264
  24 H :    0.120288
  25 H :    0.099615
  26 H :    0.104721
  27 H :    0.092091
  28 H :    0.106247
  29 H :    0.103014
  30 H :    0.119721
  31 H :    0.101634
  32 H :    0.330154
  33 H :    0.325056
  34 H :    0.125936
  35 H :    0.120967
  36 H :    0.107369
  37 H :    0.099579
  38 H :    0.098137
  39 H :    0.129309
  40 O :   -0.245153
  41 C :   -0.025846
  42 C :    0.252193
  43 C :    0.437516
  44 O :   -0.305444
  45 O :   -0.239593
  46 F :   -0.215130
  47 H :    0.136073
Sum of atomic charges:    0.0000000

LOEWDIN ATOMIC CHARGES
----------------------
   0 O :    0.094548
   1 O :    0.065428
   2 C :   -0.094153
   3 C :   -0.114470
   4 C :   -0.130679
   5 C :   -0.067971
   6 C :   -0.152452
   7 C :   -0.072170
   8 C :   -0.234596
   9 C :   -0.098826
  10 C :   -0.245361
  11 C :   -0.200417
  12 C :   -0.201055
  13 C :   -0.118130
  14 C :   -0.126436
  15 C :   -0.118219
  16 C :   -0.193706
  17 C :   -0.187129
  18 C :   -0.219365
  19 C :   -0.223122
  20 H :    0.153117
  21 H :    0.152265
  22 H :    0.153674
  23 H :    0.148952
  24 H :    0.154738
  25 H :    0.145200
  26 H :    0.146896
  27 H :    0.142849
  28 H :    0.146715
  29 H :    0.147151
  30 H :    0.144855
  31 H :    0.139476
  32 H :    0.180564
  33 H :    0.181548
  34 H :    0.123804
  35 H :    0.121833
  36 H :    0.118182
  37 H :    0.117408
  38 H :    0.132386
  39 H :    0.136566
  40 O :    0.277271
  41 C :   -0.235080
  42 C :   -0.391728
  43 C :   -0.585988
  44 O :    0.131392
  45 O :    0.292993
  46 F :    0.122092
  47 H :    0.139151

  Mayer bond orders larger than 0.100000
B(  0-O ,  8-C ) :   1.1424 B(  0-O , 32-H ) :   0.8459 B(  1-O , 10-C ) :   1.0280
B(  1-O , 33-H ) :   0.8580 B(  2-C ,  3-C ) :   0.8625 B(  2-C ,  7-C ) :   1.2996
B(  2-C ,  8-C ) :   1.2470 B(  3-C ,  5-C ) :   1.4242 B(  3-C ,  9-C ) :   1.3512
B(  4-C ,  5-C ) :   1.3531 B(  4-C , 10-C ) :   1.2841 B(  4-C , 11-C ) :   0.9039
B(  5-C , 20-H ) :   0.9555 B(  6-C ,  7-C ) :   1.3903 B(  6-C , 12-C ) :   0.9150
B(  6-C , 13-C ) :   1.3625 B(  7-C , 21-H ) :   0.9705 B(  8-C , 15-C ) :   1.4215
B(  9-C , 14-C ) :   1.3889 B(  9-C , 22-H ) :   0.9929 B( 10-C , 14-C ) :   1.3671
B( 11-C , 16-C ) :   0.9549 B( 11-C , 23-H ) :   0.9802 B( 11-C , 24-H ) :   0.9660
B( 12-C , 17-C ) :   0.9670 B( 12-C , 25-H ) :   0.9640 B( 12-C , 26-H ) :   0.9726
B( 13-C , 15-C ) :   1.4243 B( 13-C , 27-H ) :   0.9782 B( 14-C , 28-H ) :   0.9972
B( 15-C , 29-H ) :   0.9826 B( 16-C , 18-C ) :   1.8880 B( 16-C , 30-H ) :   0.9560
B( 17-C , 19-C ) :   1.9262 B( 17-C , 31-H ) :   0.9546 B( 18-C , 34-H ) :   0.9675
B( 18-C , 35-H ) :   0.9650 B( 19-C , 36-H ) :   0.9662 B( 19-C , 37-H ) :   0.9625
B( 38-H , 42-C ) :   0.9704 B( 39-H , 41-C ) :   0.9404 B( 40-O , 41-C ) :   0.9312
B( 40-O , 43-C ) :   1.1685 B( 41-C , 42-C ) :   0.9815 B( 41-C , 47-H ) :   0.9561
B( 42-C , 45-O ) :   1.0128 B( 42-C , 46-F ) :   1.0501 B( 43-C , 44-O ) :   2.0365
B( 43-C , 45-O ) :   1.0854

FINAL SINGLE POINT ENERGY     -1288.606811986633

DIPOLE MOMENT
-------------

Method             : SCF
Type of density    : Electron Density
Multiplicity       :   1
Irrep              :   0
Energy             : -1288.6068119866331472 Eh
Relativity type    :
Basis              : AO
                                X                 Y                 Z
Electronic contribution:     -8.890423599      14.576222155      24.658724288
Nuclear contribution   :      6.931175733     -15.913152381     -24.581858436
                        -----------------------------------------
Total Dipole Moment    :     -1.959247866      -1.336930226       0.076865852
                        -----------------------------------------
Magnitude (a.u.)       :      2.373171504
Magnitude (Debye)      :      6.032122584

Rotational constants in cm-1:             0.009137             0.003585             0.002824
Rotational constants in MHz :           273.933638           107.474084            84.659254

                             ****ORCA TERMINATED NORMALLY****
TOTAL RUN TIME: 0 days 1 hours 0 minutes 53 seconds 395 msec
