                         Program Version 6.0.1  -  RELEASE   -
|  1> ! Opt B3LYP def2-TZVP TightSCF TightOpt CPCM(water)
|  2>
|  3> %maxcore 5000
|  4>
|  5> %pal
|  6> nprocs 26
|  7> end
|  8>
|  9> * xyz 0 1
| 10> O           0.14195807768700      2.09649645532458     -1.71758039806954
| 11>   O          -4.11677461060348     -1.26837164177824      1.41684880324460
| 12>   C           1.01891116879739      0.48345699501260     -0.19322734147882
| 13>   C          -0.33800932726144      0.05739617583861      0.23116680549651
| 14>   C          -2.61815229857950     -0.65370132487175     -0.31349482882857
| 15>   C          -1.35479687451475     -0.21310516274641     -0.69157709671374
| 16>   C           3.45346826346022      0.26136238808768      0.04650317081735
| 17>   C           2.14970525830338     -0.10589223448056      0.37790533534919
| 18>   C           1.23245772529607      1.48820741439248     -1.15454611461401
| 19>   C          -0.62961098801703     -0.12613827011741      1.58460348021307
| 20>   C          -2.87310475440862     -0.82903433453494      1.05248634283977
| 21>   C          -3.69695898954153     -0.91251261570987     -1.34392670576360
| 22>   C           4.64062278629025     -0.42027016401517      0.70081200154604
| 23>   C           3.62454268957433      1.25921805153624     -0.90760509468109
| 24>   C          -1.88139527644026     -0.56566201210519      1.99162797404432
| 25>   C           2.52468689267115      1.86535234434629     -1.50202397212605
| 26>   C          -4.59640653228220      0.27847809780774     -1.55514244948926
| 27>   C           4.74727074883829     -1.88370489969172      0.36921093847323
| 28>   C          -5.91306377421964      0.28053423358574     -1.39243536117994
| 29>   C           4.77707582238039     -2.86852104377716      1.25893889832586
| 30>   H          -1.15260504881687     -0.08591870383506     -1.74719351953062
| 31>   H           1.99892001751600     -0.90169542103129      1.09812194263413
| 32>   H           0.12342672771298      0.09035074618038      2.33182909427335
| 33>   H          -3.20911236432750     -1.15994897976417     -2.29230459583180
| 34>   H          -4.29936265813573     -1.77460017090506     -1.05267762209117
| 35>   H           5.55358819595958      0.08772939236327      0.37273196115468
| 36>   H           4.59088083253884     -0.30217588776499      1.78761082606425
| 37>   H           4.62234205592137      1.57163680494710     -1.19338084879926
| 38>   H          -2.09216495733860     -0.69823016739369      3.04813959902179
| 39>   H           2.67086537878111      2.64780291464514     -2.24017259855935
| 40>   H          -4.09519062302390      1.19361985887824     -1.86105840327675
| 41>   H           4.79578502485740     -2.12290157732642     -0.69038098167719
| 42>   H           0.44107952413746      2.79356728757637     -2.31219057680528
| 43>   H          -4.16086903685334     -1.34587982130528      2.37639188148268
| 44>   H          -6.50376648573178      1.17158762663064     -1.56626406490827
| 45>   H          -6.44716526510819     -0.60760264562391     -1.07330047833755
| 46>   H           4.85726856263323     -3.90517883585645      0.95637994783046
| 47>   H           4.72445411184790     -2.67335087251834      2.32487404995057
| 48> *
| 49>
| 50>                          ****END OF INPUT****
 Total Charge           Charge          ....    0
 Multiplicity           Mult            ....    1
 Number of Electrons    NEL             ....  142
FINAL SINGLE POINT ENERGY      -846.982927384896
FINAL SINGLE POINT ENERGY      -846.983068069174
FINAL SINGLE POINT ENERGY      -846.983100769660
FINAL SINGLE POINT ENERGY      -846.983123693761
FINAL SINGLE POINT ENERGY      -846.983137851428
FINAL SINGLE POINT ENERGY      -846.983146416464
FINAL SINGLE POINT ENERGY      -846.983155724074
FINAL SINGLE POINT ENERGY      -846.983168445037
FINAL SINGLE POINT ENERGY      -846.983165931018
FINAL SINGLE POINT ENERGY      -846.983175132841
FINAL SINGLE POINT ENERGY      -846.983176973867
FINAL SINGLE POINT ENERGY      -846.983177932191
                    ***********************HURRAY********************

CARTESIAN COORDINATES (ANGSTROEM)
---------------------------------
  O      0.165975    2.081095   -1.712083
  O     -4.173187   -1.116587    1.493873
  C      1.004953    0.500884   -0.132940
  C     -0.363386    0.110681    0.295171
  C     -2.636174   -0.631464   -0.248196
  C     -1.361721   -0.219917   -0.629009
  C      3.433142    0.241764    0.131751
  C      2.121325   -0.085474    0.472966
  C      1.240808    1.465562   -1.130017
  C     -0.683176    0.016035    1.653041
  C     -2.921112   -0.711749    1.122508
  C     -3.685853   -0.964748   -1.288708
  C      4.603920   -0.450567    0.804170
  C      3.627826    1.198154   -0.863080
  C     -1.945958   -0.390441    2.063613
  C      2.543639    1.804097   -1.487000
  C     -4.590885    0.199838   -1.602039
  C      4.875576   -1.820646    0.241167
  C     -5.917103    0.185161   -1.519366
  C      4.870927   -2.949872    0.942693
  H     -1.138008   -0.171218   -1.687380
  H      1.950851   -0.837354    1.235452
  H      0.057431    0.270077    2.401343
  H     -3.167970   -1.260028   -2.206732
  H     -4.287761   -1.816019   -0.965342
  H      5.496087    0.170046    0.671499
  H      4.423975   -0.532726    1.879237
  H      4.633361    1.480223   -1.154013
  H     -2.181924   -0.455199    3.120422
  H      2.704039    2.557911   -2.250541
  H     -4.087573    1.108104   -1.926093
  H      5.084577   -1.857119   -0.825850
  H      0.475551    2.739087   -2.349049
  H     -4.234436   -1.150297    2.458217
  H     -6.509365    1.056604   -1.772824
  H     -6.456505   -0.699528   -1.196669
  H      5.075802   -3.907003    0.477560
  H      4.663131   -2.954967    2.007949

 Multiplicity           Mult            ....    1
 Number of Electrons    NEL             ....  142
 Basis Dimension        Dim             ....  728

ORBITAL ENERGIES
----------------

  NO   OCC          E(Eh)            E(eV)
   0   2.0000     -19.154836      -521.2296
   1   2.0000     -19.153207      -521.1852
   2   2.0000     -10.234033      -278.4822
   3   2.0000     -10.233026      -278.4548
   4   2.0000     -10.182158      -277.0706
   5   2.0000     -10.178859      -276.9808
   6   2.0000     -10.178602      -276.9738
   7   2.0000     -10.174756      -276.8692
   8   2.0000     -10.173232      -276.8277
   9   2.0000     -10.172931      -276.8195
  10   2.0000     -10.172683      -276.8128
  11   2.0000     -10.172211      -276.7999
  12   2.0000     -10.170879      -276.7637
  13   2.0000     -10.170822      -276.7621
  14   2.0000     -10.170502      -276.7534
  15   2.0000     -10.170077      -276.7419
  16   2.0000     -10.169986      -276.7394
  17   2.0000     -10.169835      -276.7353
  18   2.0000     -10.158289      -276.4211
  19   2.0000     -10.158271      -276.4206
  20   2.0000      -1.060429       -28.8557
  21   2.0000      -1.059308       -28.8252
  22   2.0000      -0.868310       -23.6279
  23   2.0000      -0.851659       -23.1748
  24   2.0000      -0.804587       -21.8939
  25   2.0000      -0.795489       -21.6464
  26   2.0000      -0.770912       -20.9776
  27   2.0000      -0.750707       -20.4278
  28   2.0000      -0.742822       -20.2132
  29   2.0000      -0.720429       -19.6039
  30   2.0000      -0.679951       -18.5024
  31   2.0000      -0.675039       -18.3687
  32   2.0000      -0.632554       -17.2127
  33   2.0000      -0.624694       -16.9988
  34   2.0000      -0.598354       -16.2821
  35   2.0000      -0.574625       -15.6363
  36   2.0000      -0.554439       -15.0871
  37   2.0000      -0.550478       -14.9793
  38   2.0000      -0.542341       -14.7578
  39   2.0000      -0.540594       -14.7103
  40   2.0000      -0.501997       -13.6600
  41   2.0000      -0.483921       -13.1681
  42   2.0000      -0.478268       -13.0143
  43   2.0000      -0.458801       -12.4846
  44   2.0000      -0.456570       -12.4239
  45   2.0000      -0.443583       -12.0705
  46   2.0000      -0.437556       -11.9065
  47   2.0000      -0.433295       -11.7906
  48   2.0000      -0.430049       -11.7022
  49   2.0000      -0.427970       -11.6457
  50   2.0000      -0.411220       -11.1899
  51   2.0000      -0.408957       -11.1283
  52   2.0000      -0.408415       -11.1135
  53   2.0000      -0.402502       -10.9526
  54   2.0000      -0.393051       -10.6955
  55   2.0000      -0.382380       -10.4051
  56   2.0000      -0.380090       -10.3428
  57   2.0000      -0.363870        -9.9014
  58   2.0000      -0.354434        -9.6446
  59   2.0000      -0.350074        -9.5260
  60   2.0000      -0.346474        -9.4280
  61   2.0000      -0.343127        -9.3370
  62   2.0000      -0.334460        -9.1011
  63   2.0000      -0.332641        -9.0516
  64   2.0000      -0.326112        -8.8740
  65   2.0000      -0.265474        -7.2239
  66   2.0000      -0.263724        -7.1763
  67   2.0000      -0.262870        -7.1531
  68   2.0000      -0.251460        -6.8426
  69   2.0000      -0.230236        -6.2650
  70   2.0000      -0.210929        -5.7397
  71   0.0000      -0.027475        -0.7476
  72   0.0000      -0.017162        -0.4670
  73   0.0000      -0.006208        -0.1689
  74   0.0000       0.007902         0.2150
  75   0.0000       0.012601         0.3429

MULLIKEN ATOMIC CHARGES
-----------------------
   0 O :   -0.447990
   1 O :   -0.452812
   2 C :    0.055107
   3 C :    0.145844
   4 C :    0.039553
   5 C :   -0.263304
   6 C :    0.123952
   7 C :   -0.274005
   8 C :    0.209535
   9 C :   -0.229932
  10 C :    0.248150
  11 C :   -0.157154
  12 C :   -0.184550
  13 C :   -0.198442
  14 C :   -0.243190
  15 C :   -0.248030
  16 C :   -0.148877
  17 C :   -0.138567
  18 C :   -0.324226
  19 C :   -0.326513
  20 H :    0.123720
  21 H :    0.139474
  22 H :    0.147274
  23 H :    0.124534
  24 H :    0.116594
  25 H :    0.123177
  26 H :    0.121222
  27 H :    0.134506
  28 H :    0.140185
  29 H :    0.138619
  30 H :    0.129481
  31 H :    0.129533
  32 H :    0.354337
  33 H :    0.356639
  34 H :    0.136806
  35 H :    0.131474
  36 H :    0.136668
  37 H :    0.131208
Sum of atomic charges:    0.0000000

LOEWDIN ATOMIC CHARGES
----------------------
   0 O :    0.072537
   1 O :    0.071783
   2 C :   -0.090350
   3 C :   -0.118235
   4 C :   -0.125221
   5 C :   -0.073187
   6 C :   -0.154591
   7 C :   -0.073857
   8 C :   -0.237069
   9 C :   -0.109438
  10 C :   -0.243070
  11 C :   -0.196138
  12 C :   -0.200108
  13 C :   -0.120390
  14 C :   -0.140194
  15 C :   -0.140619
  16 C :   -0.192839
  17 C :   -0.193552
  18 C :   -0.228852
  19 C :   -0.230088
  20 H :    0.156270
  21 H :    0.158006
  22 H :    0.154301
  23 H :    0.154095
  24 H :    0.148500
  25 H :    0.152242
  26 H :    0.149916
  27 H :    0.152243
  28 H :    0.153403
  29 H :    0.153154
  30 H :    0.143440
  31 H :    0.143175
  32 H :    0.204705
  33 H :    0.205850
  34 H :    0.123626
  35 H :    0.123698
  36 H :    0.123347
  37 H :    0.123505

  Mayer bond orders larger than 0.100000
B(  0-O ,  8-C ) :   1.1489 B(  0-O , 32-H ) :   0.8578 B(  1-O , 10-C ) :   1.1334
B(  1-O , 33-H ) :   0.8578 B(  2-C ,  3-C ) :   0.8808 B(  2-C ,  7-C ) :   1.3664
B(  2-C ,  8-C ) :   1.3190 B(  3-C ,  5-C ) :   1.3334 B(  3-C ,  9-C ) :   1.3512
B(  4-C ,  5-C ) :   1.4239 B(  4-C , 10-C ) :   1.3235 B(  4-C , 11-C ) :   0.9204
B(  5-C , 20-H ) :   0.9810 B(  6-C ,  7-C ) :   1.3848 B(  6-C , 12-C ) :   0.9058
B(  6-C , 13-C ) :   1.3570 B(  7-C , 21-H ) :   0.9699 B(  8-C , 15-C ) :   1.3723
B(  9-C , 14-C ) :   1.3911 B(  9-C , 22-H ) :   0.9612 B( 10-C , 14-C ) :   1.3554
B( 11-C , 16-C ) :   0.9553 B( 11-C , 23-H ) :   0.9626 B( 11-C , 24-H ) :   0.9619
B( 12-C , 17-C ) :   0.9573 B( 12-C , 25-H ) :   0.9622 B( 12-C , 26-H ) :   0.9665
B( 13-C , 15-C ) :   1.3702 B( 13-C , 27-H ) :   0.9735 B( 14-C , 28-H ) :   0.9750
B( 15-C , 29-H ) :   0.9747 B( 16-C , 18-C ) :   1.9191 B( 16-C , 30-H ) :   0.9557
B( 17-C , 19-C ) :   1.9138 B( 17-C , 31-H ) :   0.9555 B( 18-C , 34-H ) :   0.9663
B( 18-C , 35-H ) :   0.9617 B( 19-C , 36-H ) :   0.9659 B( 19-C , 37-H ) :   0.9618

FINAL SINGLE POINT ENERGY      -846.983178053369

DIPOLE MOMENT
-------------

Method             : SCF
Type of density    : Electron Density
Multiplicity       :   1
Irrep              :   0
Energy             :  -846.9831780533686469 Eh
Relativity type    :
Basis              : AO
                                X                 Y                 Z
Electronic contribution:     -2.336433418       5.009034228       0.937677163
Nuclear contribution   :      2.982396291      -4.528256753      -0.707106152
                        -----------------------------------------
Total Dipole Moment    :      0.645962874       0.480777475       0.230571011
                        -----------------------------------------
Magnitude (a.u.)       :      0.837602535
Magnitude (Debye)      :      2.129016447

Rotational constants in cm-1:             0.021251             0.005344             0.004680
Rotational constants in MHz :           637.103028           160.194322           140.300347

                             ****ORCA TERMINATED NORMALLY****
TOTAL RUN TIME: 0 days 0 hours 9 minutes 16 seconds 957 msec
