                         Program Version 6.0.1  -  RELEASE   -
|  1> ! wB97X-D3 def2-TZVPP TightSCF
|  2>
|  3> %maxcore 5000
|  4>
|  5> %pal
|  6> nprocs 25
|  7> end
|  8>
|  9> * xyz 0 1
| 10> O           1.44883635984216      1.74312873788024      2.47757224321896
| 11>   O          -3.96640522927180     -1.53721222658900      2.19719277017467
| 12>   C           1.14714937442909      0.25834961349492      0.55877500428167
| 13>   C          -0.19835349778325     -0.21055863713656      0.97966949961584
| 14>   C          -2.56606475265288     -0.57222577420972      0.45660474842279
| 15>   C          -1.28909883828207     -0.13470959393041      0.10948727036696
| 16>   C           2.98221273083837      0.15150725631207     -1.06284558698211
| 17>   C           1.71212180148166     -0.21824214778400     -0.62770025457740
| 18>   C           1.89277244111409      1.17574066914369      1.32454057921478
| 19>   C          -0.41254304704403     -0.77587852383178      2.24081332776923
| 20>   C          -2.74265491189686     -1.12499545197744      1.73366651795229
| 21>   C          -3.72754439607839     -0.40683812252847     -0.50372628148847
| 22>   C           3.55466786370372     -0.40754355836251     -2.35193343504399
| 23>   C           3.70484344935494      1.04119881500172     -0.26958110560480
| 24>   C          -1.66693318704310     -1.23512039630295      2.60906503642381
| 25>   C           3.16768012230630      1.54975989519899      0.90328982620552
| 26>   C          -4.45601156757363     -1.68792745951542     -0.81795702885990
| 27>   C           2.81644539058261      0.04971514249360     -3.58008664802281
| 28>   C          -5.76889875587354     -1.86619834595058     -0.69338491311510
| 29>   C           2.25229436617255     -0.75007228525331     -4.47742350750479
| 30>   H          -1.14557763172235      0.30675071574140     -0.87016567308010
| 31>   H           1.13834701339282     -0.92490247108501     -1.21712719955577
| 32>   H           0.41302798722578     -0.87118893303402      2.93471379511944
| 33>   H          -4.43822391260162      0.33147808754592     -0.11878883328300
| 34>   H          -3.33327107690856      0.00861578354354     -1.43549953076658
| 35>   H           3.55760292018952     -1.50146875024710     -2.32239447362272
| 36>   H           4.60119227210665     -0.09413067779989     -2.42917986839463
| 37>   H           4.70114718682672      1.34457991282087     -0.57171487568402
| 38>   H          -1.83081269112381     -1.68282716360525      3.58080808249647
| 39>   H           3.72006845377086      2.25530745863548      1.51083190661114
| 40>   H          -3.84014429328463     -2.51222300573692     -1.17005585502377
| 41>   H           2.75051506346327      1.12706196003368     -3.71326803707727
| 42>   H           0.49071634705253      1.65093472842828      2.60193727298891
| 43>   H          -4.56819910126180     -1.68893916668365      1.45248732189911
| 44>   H          -6.23955579845972     -2.80823485494509     -0.94590648070186
| 45>   H          -6.41942508357253     -1.06613571587761     -0.35485852311778
| 46>   H           1.73557058676709     -0.35697510930613     -5.34429491334588
| 47>   H           2.29014944136749     -1.82992900245794     -4.37945103132431
| 48>   H          -4.96809483007172      3.04528453531579      4.64027264278358
| 49>   H          -4.28811331346778      1.01420640836077      5.76251674412010
| 50>   C          -4.63042932642632      2.25301830915576      3.97093840903542
| 51>   O          -2.59950105314691      1.31659624668563      4.61862555774242
| 52>   C          -2.36670451754740      2.21567139209379      3.64889664321046
| 53>   C          -4.01765593469504      1.06093955220916      4.71016008484851
| 54>   O          -3.51932988645208      2.75524057923114      3.20221378916041
| 55>   O          -1.28705240862520      2.51673920373507      3.22947008037139
| 56>   H          -5.42591903598128      1.98452055326479      3.28029769561609
| 57>   H          -4.22601971862241      0.10911830323265      4.22168836884351
| 58>   O          -5.57480376756347      2.70856188804826      0.61728554974665
| 59>   C          -4.63885636096829      3.44373603705377      0.51657345659487
| 60>   O          -3.46472223300616      3.11549558556201     -0.05996650988183
| 61>   O          -4.61713522134920      4.71915993495152      0.95960407040262
| 62>   C          -2.49366090254553      4.14989790739242      0.18553322503205
| 63>   C          -3.36050218413059      5.33358878678795      0.62841857196613
| 64>   H          -1.81446629790682      3.80665433883107      0.96533678095942
| 65>   H          -3.53038713357665      6.06101958235524     -0.16688932747649
| 66>   H          -1.94611174514467      4.33317966016175     -0.73643385782507
| 67>   H          -2.97739480352578      5.83737480384762      1.51327655056490
| 68> *
| 69>
| 70>                          ****END OF INPUT****

CARTESIAN COORDINATES (ANGSTROEM)
---------------------------------
  O      1.448836    1.743129    2.477572
  O     -3.966405   -1.537212    2.197193
  C      1.147149    0.258350    0.558775
  C     -0.198353   -0.210559    0.979669
  C     -2.566065   -0.572226    0.456605
  C     -1.289099   -0.134710    0.109487
  C      2.982213    0.151507   -1.062846
  C      1.712122   -0.218242   -0.627700
  C      1.892772    1.175741    1.324541
  C     -0.412543   -0.775879    2.240813
  C     -2.742655   -1.124995    1.733667
  C     -3.727544   -0.406838   -0.503726
  C      3.554668   -0.407544   -2.351933
  C      3.704843    1.041199   -0.269581
  C     -1.666933   -1.235120    2.609065
  C      3.167680    1.549760    0.903290
  C     -4.456012   -1.687927   -0.817957
  C      2.816445    0.049715   -3.580087
  C     -5.768899   -1.866198   -0.693385
  C      2.252294   -0.750072   -4.477424
  H     -1.145578    0.306751   -0.870166
  H      1.138347   -0.924902   -1.217127
  H      0.413028   -0.871189    2.934714
  H     -4.438224    0.331478   -0.118789
  H     -3.333271    0.008616   -1.435500
  H      3.557603   -1.501469   -2.322394
  H      4.601192   -0.094131   -2.429180
  H      4.701147    1.344580   -0.571715
  H     -1.830813   -1.682827    3.580808
  H      3.720068    2.255307    1.510832
  H     -3.840144   -2.512223   -1.170056
  H      2.750515    1.127062   -3.713268
  H      0.490716    1.650935    2.601937
  H     -4.568199   -1.688939    1.452487
  H     -6.239556   -2.808235   -0.945906
  H     -6.419425   -1.066136   -0.354859
  H      1.735571   -0.356975   -5.344295
  H      2.290149   -1.829929   -4.379451
  H     -4.968095    3.045285    4.640273
  H     -4.288113    1.014206    5.762517
  C     -4.630429    2.253018    3.970938
  O     -2.599501    1.316596    4.618626
  C     -2.366705    2.215671    3.648897
  C     -4.017656    1.060940    4.710160
  O     -3.519330    2.755241    3.202214
  O     -1.287052    2.516739    3.229470
  H     -5.425919    1.984521    3.280298
  H     -4.226020    0.109118    4.221688
  O     -5.574804    2.708562    0.617286
  C     -4.638856    3.443736    0.516573
  O     -3.464722    3.115496   -0.059967
  O     -4.617135    4.719160    0.959604
  C     -2.493661    4.149898    0.185533
  C     -3.360502    5.333589    0.628419
  H     -1.814466    3.806654    0.965337
  H     -3.530387    6.061020   -0.166889
  H     -1.946112    4.333180   -0.736434
  H     -2.977395    5.837375    1.513277

 Total Charge           Charge          ....    0
 Multiplicity           Mult            ....    1
 Number of Electrons    NEL             ....  234
 Basis Dimension        Dim             .... 1356

ORBITAL ENERGIES
----------------

  NO   OCC          E(Eh)            E(eV)
   0   2.0000     -19.305619      -525.3326
   1   2.0000     -19.304089      -525.2910
   2   2.0000     -19.296250      -525.0776
   3   2.0000     -19.295148      -525.0477
   4   2.0000     -19.257129      -524.0131
   5   2.0000     -19.235134      -523.4146
   6   2.0000     -19.234593      -523.3999
   7   2.0000     -19.223139      -523.0882
   8   2.0000     -10.469061      -284.8776
   9   2.0000     -10.458424      -284.5882
  10   2.0000     -10.364959      -282.0449
  11   2.0000     -10.364513      -282.0327
  12   2.0000     -10.361973      -281.9636
  13   2.0000     -10.356975      -281.8276
  14   2.0000     -10.338728      -281.3311
  15   2.0000     -10.328661      -281.0572
  16   2.0000     -10.295830      -280.1638
  17   2.0000     -10.288921      -279.9758
  18   2.0000     -10.286929      -279.9216
  19   2.0000     -10.283503      -279.8283
  20   2.0000     -10.281748      -279.7806
  21   2.0000     -10.279299      -279.7140
  22   2.0000     -10.278928      -279.7038
  23   2.0000     -10.278163      -279.6830
  24   2.0000     -10.277970      -279.6778
  25   2.0000     -10.276676      -279.6426
  26   2.0000     -10.273552      -279.5576
  27   2.0000     -10.273285      -279.5503
  28   2.0000     -10.269820      -279.4560
  29   2.0000     -10.269514      -279.4477
  30   2.0000     -10.263868      -279.2941
  31   2.0000     -10.262154      -279.2474
  32   2.0000      -1.293875       -35.2081
  33   2.0000      -1.283769       -34.9331
  34   2.0000      -1.177661       -32.0458
  35   2.0000      -1.172462       -31.9043
  36   2.0000      -1.171831       -31.8871
  37   2.0000      -1.168817       -31.8051
  38   2.0000      -1.161700       -31.6115
  39   2.0000      -1.153440       -31.3867
  40   2.0000      -0.983368       -26.7588
  41   2.0000      -0.964850       -26.2549
  42   2.0000      -0.930046       -25.3079
  43   2.0000      -0.911802       -24.8114
  44   2.0000      -0.910493       -24.7758
  45   2.0000      -0.903701       -24.5910
  46   2.0000      -0.885056       -24.0836
  47   2.0000      -0.872150       -23.7324
  48   2.0000      -0.852228       -23.1903
  49   2.0000      -0.830104       -22.5883
  50   2.0000      -0.803603       -21.8671
  51   2.0000      -0.799634       -21.7591
  52   2.0000      -0.796351       -21.6698
  53   2.0000      -0.783434       -21.3183
  54   2.0000      -0.736709       -20.0469
  55   2.0000      -0.729197       -19.8424
  56   2.0000      -0.721810       -19.6414
  57   2.0000      -0.720555       -19.6073
  58   2.0000      -0.697024       -18.9670
  59   2.0000      -0.688554       -18.7365
  60   2.0000      -0.675108       -18.3706
  61   2.0000      -0.662848       -18.0370
  62   2.0000      -0.657972       -17.9043
  63   2.0000      -0.655048       -17.8248
  64   2.0000      -0.645890       -17.5756
  65   2.0000      -0.639560       -17.4033
  66   2.0000      -0.631637       -17.1877
  67   2.0000      -0.629205       -17.1216
  68   2.0000      -0.619290       -16.8517
  69   2.0000      -0.613015       -16.6810
  70   2.0000      -0.593487       -16.1496
  71   2.0000      -0.587498       -15.9866
  72   2.0000      -0.579067       -15.7572
  73   2.0000      -0.571019       -15.5382
  74   2.0000      -0.562297       -15.3009
  75   2.0000      -0.559225       -15.2173
  76   2.0000      -0.555940       -15.1279
  77   2.0000      -0.553634       -15.0651
  78   2.0000      -0.551077       -14.9956
  79   2.0000      -0.548578       -14.9276
  80   2.0000      -0.543927       -14.8010
  81   2.0000      -0.542183       -14.7535
  82   2.0000      -0.534700       -14.5499
  83   2.0000      -0.529386       -14.4053
  84   2.0000      -0.523750       -14.2520
  85   2.0000      -0.517467       -14.0810
  86   2.0000      -0.510993       -13.9048
  87   2.0000      -0.507552       -13.8112
  88   2.0000      -0.500009       -13.6059
  89   2.0000      -0.493926       -13.4404
  90   2.0000      -0.492500       -13.4016
  91   2.0000      -0.488296       -13.2872
  92   2.0000      -0.486709       -13.2440
  93   2.0000      -0.485002       -13.1976
  94   2.0000      -0.481312       -13.0972
  95   2.0000      -0.480644       -13.0790
  96   2.0000      -0.461321       -12.5532
  97   2.0000      -0.454817       -12.3762
  98   2.0000      -0.450940       -12.2707
  99   2.0000      -0.445288       -12.1169
 100   2.0000      -0.443024       -12.0553
 101   2.0000      -0.435502       -11.8506
 102   2.0000      -0.426246       -11.5987
 103   2.0000      -0.424950       -11.5635
 104   2.0000      -0.420533       -11.4433
 105   2.0000      -0.418750       -11.3948
 106   2.0000      -0.415405       -11.3037
 107   2.0000      -0.413841       -11.2612
 108   2.0000      -0.408427       -11.1139
 109   2.0000      -0.406095       -11.0504
 110   2.0000      -0.402930       -10.9643
 111   2.0000      -0.367418        -9.9979
 112   2.0000      -0.351522        -9.5654
 113   2.0000      -0.339642        -9.2421
 114   2.0000      -0.334636        -9.1059
 115   2.0000      -0.304838        -8.2951
 116   2.0000      -0.283239        -7.7073
 117   0.0000       0.053011         1.4425
 118   0.0000       0.055445         1.5087
 119   0.0000       0.078198         2.1279
 120   0.0000       0.082391         2.2420
 121   0.0000       0.087300         2.3756

MULLIKEN ATOMIC CHARGES
-----------------------
   0 O :   -0.335860
   1 O :   -0.354718
   2 C :    0.073478
   3 C :    0.037487
   4 C :   -0.026111
   5 C :   -0.159007
   6 C :   -0.028967
   7 C :   -0.173956
   8 C :    0.171445
   9 C :   -0.169690
  10 C :    0.201288
  11 C :   -0.095303
  12 C :   -0.093474
  13 C :   -0.084882
  14 C :   -0.194145
  15 C :   -0.181973
  16 C :   -0.163894
  17 C :   -0.127619
  18 C :   -0.244833
  19 C :   -0.224449
  20 H :    0.106245
  21 H :    0.112942
  22 H :    0.135340
  23 H :    0.102805
  24 H :    0.084358
  25 H :    0.089286
  26 H :    0.081094
  27 H :    0.101120
  28 H :    0.117234
  29 H :    0.114108
  30 H :    0.121684
  31 H :    0.108287
  32 H :    0.240572
  33 H :    0.222138
  34 H :    0.111802
  35 H :    0.113310
  36 H :    0.099332
  37 H :    0.080030
  38 H :    0.100644
  39 H :    0.106642
  40 C :    0.014581
  41 O :   -0.246517
  42 C :    0.495690
  43 C :    0.003784
  44 O :   -0.275122
  45 O :   -0.388343
  46 H :    0.110972
  47 H :    0.108576
  48 O :   -0.359671
  49 C :    0.450604
  50 O :   -0.255586
  51 O :   -0.258865
  52 C :   -0.007388
  53 C :    0.024096
  54 H :    0.113141
  55 H :    0.097443
  56 H :    0.104156
  57 H :    0.094659
Sum of atomic charges:   -0.0000000

LOEWDIN ATOMIC CHARGES
----------------------
   0 O :    0.342024
   1 O :    0.326216
   2 C :   -0.071643
   3 C :   -0.083367
   4 C :   -0.077776
   5 C :    0.015675
   6 C :   -0.090200
   7 C :    0.016310
   8 C :   -0.184374
   9 C :    0.002452
  10 C :   -0.189447
  11 C :   -0.020617
  12 C :   -0.021830
  13 C :   -0.012580
  14 C :   -0.017520
  15 C :   -0.015466
  16 C :   -0.031240
  17 C :   -0.029993
  18 C :    0.009302
  19 C :   -0.000760
  20 H :    0.027265
  21 H :    0.028720
  22 H :    0.029297
  23 H :    0.037650
  24 H :    0.037658
  25 H :    0.031885
  26 H :    0.031079
  27 H :    0.019123
  28 H :    0.023524
  29 H :    0.021680
  30 H :    0.019733
  31 H :    0.016463
  32 H :   -0.126573
  33 H :   -0.120855
  34 H :    0.001875
  35 H :    0.005659
  36 H :   -0.001456
  37 H :   -0.001450
  38 H :    0.014452
  39 H :    0.016768
  40 C :   -0.050021
  41 O :    0.293609
  42 C :   -0.598749
  43 C :   -0.049671
  44 O :    0.287111
  45 O :    0.110261
  46 H :    0.022286
  47 H :    0.016701
  48 O :    0.095559
  49 C :   -0.616076
  50 O :    0.284716
  51 O :    0.280572
  52 C :   -0.056737
  53 C :   -0.060756
  54 H :    0.016614
  55 H :    0.012599
  56 H :    0.015672
  57 H :    0.018646

  Mayer bond orders larger than 0.100000
B(  0-O ,  8-C ) :   1.1429 B(  0-O , 32-H ) :   0.9469 B(  1-O , 10-C ) :   1.0660
B(  1-O , 33-H ) :   0.9618 B(  2-C ,  3-C ) :   0.8473 B(  2-C ,  7-C ) :   1.3649
B(  2-C ,  8-C ) :   1.2770 B(  3-C ,  5-C ) :   1.3977 B(  3-C ,  9-C ) :   1.3561
B(  4-C ,  5-C ) :   1.4062 B(  4-C , 10-C ) :   1.3099 B(  4-C , 11-C ) :   0.9210
B(  5-C , 20-H ) :   0.9664 B(  6-C ,  7-C ) :   1.4376 B(  6-C , 12-C ) :   0.9244
B(  6-C , 13-C ) :   1.3774 B(  7-C , 21-H ) :   0.9520 B(  8-C , 15-C ) :   1.4371
B(  9-C , 14-C ) :   1.4535 B(  9-C , 22-H ) :   0.9921 B( 10-C , 14-C ) :   1.3805
B( 11-C , 16-C ) :   0.9241 B( 11-C , 23-H ) :   1.0091 B( 11-C , 24-H ) :   0.9881
B( 12-C , 17-C ) :   0.9337 B( 12-C , 25-H ) :   1.0057 B( 12-C , 26-H ) :   1.0021
B( 13-C , 15-C ) :   1.4719 B( 13-C , 27-H ) :   0.9775 B( 14-C , 28-H ) :   0.9971
B( 15-C , 29-H ) :   0.9760 B( 16-C , 18-C ) :   1.8781 B( 16-C , 30-H ) :   0.9827
B( 17-C , 19-C ) :   1.9082 B( 17-C , 31-H ) :   0.9807 B( 18-C , 34-H ) :   0.9978
B( 18-C , 35-H ) :   1.0008 B( 19-C , 36-H ) :   0.9973 B( 19-C , 37-H ) :   0.9995
B( 38-H , 40-C ) :   0.9926 B( 39-H , 43-C ) :   0.9860 B( 40-C , 43-C ) :   0.9599
B( 40-C , 44-O ) :   0.9039 B( 40-C , 46-H ) :   0.9823 B( 41-O , 42-C ) :   1.1823
B( 41-O , 43-C ) :   0.9136 B( 42-C , 44-O ) :   1.1409 B( 42-C , 45-O ) :   1.9544
B( 43-C , 47-H ) :   0.9800 B( 48-O , 49-C ) :   2.0415 B( 49-C , 50-O ) :   1.1546
B( 49-C , 51-O ) :   1.1501 B( 50-O , 52-C ) :   0.9160 B( 51-O , 53-C ) :   0.9287
B( 52-C , 53-C ) :   0.9651 B( 52-C , 54-H ) :   0.9826 B( 52-C , 56-H ) :   0.9860
B( 53-C , 55-H ) :   0.9908 B( 53-C , 57-H ) :   0.9807

Dispersion correction           -0.032500671
FINAL SINGLE POINT ENERGY     -1532.187260452699

DIPOLE MOMENT
-------------

Method             : SCF
Type of density    : Electron Density
Multiplicity       :   1
Irrep              :   0
Energy             : -1532.1547597815829249 Eh
Relativity type    :
Basis              : AO
                                X                 Y                 Z
Electronic contribution:     -4.429692054       8.891917037      16.049136803
Nuclear contribution   :      3.187682464      -8.178933687     -15.906434046
                        -----------------------------------------
Total Dipole Moment    :     -1.242009590       0.712983350       0.142702757
                        -----------------------------------------
Magnitude (a.u.)       :      1.439200179
Magnitude (Debye)      :      3.658156137

Rotational constants in cm-1:             0.005651             0.002867             0.002714
Rotational constants in MHz :           169.400348            85.964820            81.350654

                             ****ORCA TERMINATED NORMALLY****
TOTAL RUN TIME: 0 days 0 hours 2 minutes 33 seconds 966 msec
