                         Program Version 6.0.1  -  RELEASE   -
|  1> ! OPT B3LYP def2-TZVP TightSCF D3BJ RIJCOSX
|  2>
|  3> %maxcore 5000
|  4>
|  5> %pal
|  6> nprocs 25
|  7> end
|  8>
|  9> * xyz 0 1
| 10> O           1.57995245402407      1.01349424407342      2.75100898613981
| 11>   O          -3.52294925914809     -2.72342394803277      2.11751471998667
| 12>   C           1.23287581049049     -0.06761044616067      0.59782573848223
| 13>   C          -0.02479015487516     -0.73429337795215      1.00501942811838
| 14>   C          -2.37861144131323     -1.22658171024946      0.58331152005785
| 15>   C          -1.18821701578673     -0.58797840181368      0.25155365846055
| 16>   C           2.92700027033283      0.28256279835054     -1.12789807178654
| 17>   C           1.71930014927413     -0.25477749998157     -0.69606458374371
| 18>   C           1.97802764662062      0.73109562243285      1.48297748215845
| 19>   C          -0.07334087406215     -1.56142467971624      2.12809830961476
| 20>   C          -2.38568677033552     -2.07085165525620      1.69967336101115
| 21>   C          -3.63704057841663     -0.98549544010899     -0.21789947605607
| 22>   C           3.42231544369045      0.02870994730354     -2.53627689058215
| 23>   C           3.66328785757134      1.03867634770242     -0.21985489330169
| 24>   C          -1.23761256233090     -2.23243782630261      2.46463222006921
| 25>   C           3.19414819445337      1.26433776618974      1.06489582110442
| 26>   C          -4.19785904859539     -2.23944858944127     -0.82970430639920
| 27>   C           2.43271142454535      0.44488436087717     -3.58480122565224
| 28>   C          -5.42857874930029     -2.70181029931035     -0.62974946088628
| 29>   C           1.88854985733825     -0.36596440984366     -4.48358175480661
| 30>   H          -1.17489842253953      0.07471184093596     -0.60515410029497
| 31>   H           1.13998179305731     -0.86493169057672     -1.37889719381774
| 32>   H           0.81241626549305     -1.68799284371679      2.73553452379487
| 33>   H          -4.40067888718404     -0.51412924803365      0.40981222794061
| 34>   H          -3.40348741586382     -0.27311308054743     -1.01309050593000
| 35>   H           3.66133401675062     -1.03121703174704     -2.66853114109854
| 36>   H           4.35589108759455      0.58134092910821     -2.68055986828916
| 37>   H           4.61153680241324      1.46733368987170     -0.52293097442508
| 38>   H          -1.26957790902912     -2.89628192678516      3.31869617817806
| 39>   H           3.74898089080306      1.87705840546360      1.76316027835355
| 40>   H          -3.51402900612451     -2.79879640753080     -1.46233653336092
| 41>   H           2.14516253032457      1.49306553641263     -3.56788969424293
| 42>   H           0.60848430715900      1.05214301854899      2.82378399186367
| 43>   H          -4.10640631325237     -2.87474260856277      1.35820016023690
| 44>   H          -5.77536263028321     -3.61545836865213     -1.09498128704182
| 45>   H          -6.14022310803343     -2.16714168462350     -0.00859566382059
| 46>   H           1.17314061100328     -0.00873035771271     -5.21367669333605
| 47>   H           2.14463190827999     -1.41935190460939     -4.52239898722033
| 48>   H          -4.47948222303594     -0.68448410993095      3.15419822859287
| 49>   H          -3.01296139784027     -1.56076210836663      4.77484016759611
| 50>   O          -1.90596989282039      0.15980072177741      4.55472420930071
| 51>   C          -3.14590117944647     -0.48542974953390      4.87509722676122
| 52>   C          -4.13138879483537      0.08254785928043      3.84140604283459
| 53>   C          -2.05929428686856      0.97943395320875      3.50134729532993
| 54>   O          -1.17277788709974      1.59755350506741      2.99018375746649
| 55>   O          -3.34283298095691      1.02756861441647      3.10063705549192
| 56>   H          -4.97238601511136      0.60970004247979      4.28761665786796
| 57>   H          -3.40456930953034     -0.23922982350174      5.90404049937959
| 58> *
| 59>
| 60>                          ****END OF INPUT****
 Total Charge           Charge          ....    0
 Multiplicity           Mult            ....    1
 Number of Electrons    NEL             ....  188
Dispersion correction           -0.105668009
FINAL SINGLE POINT ENERGY     -1189.451796173506
Dispersion correction             ... done (  0.0 sec)
Dispersion correction           -0.104225345
FINAL SINGLE POINT ENERGY     -1189.450866008332
Dispersion correction             ... done (  0.0 sec)
Dispersion correction           -0.104930406
FINAL SINGLE POINT ENERGY     -1189.451824982256
Dispersion correction             ... done (  0.0 sec)
FINAL SINGLE POINT ENERGY     -1189.451416518375
FINAL SINGLE POINT ENERGY     -1189.451894652458
FINAL SINGLE POINT ENERGY     -1189.451918284810
FINAL SINGLE POINT ENERGY     -1189.451954711473
FINAL SINGLE POINT ENERGY     -1189.451988966035
FINAL SINGLE POINT ENERGY     -1189.452049762632
FINAL SINGLE POINT ENERGY     -1189.452098472203
FINAL SINGLE POINT ENERGY     -1189.452204015516
FINAL SINGLE POINT ENERGY     -1189.452221711404
FINAL SINGLE POINT ENERGY     -1189.452247184262
FINAL SINGLE POINT ENERGY     -1189.452255931424
FINAL SINGLE POINT ENERGY     -1189.452257560233
FINAL SINGLE POINT ENERGY     -1189.452258703825
FINAL SINGLE POINT ENERGY     -1189.452259377561
Dispersion correction             ... done (  0.0 sec)
Dispersion correction           -0.105677124
FINAL SINGLE POINT ENERGY     -1189.452259946400
Dispersion correction             ... done (  0.0 sec)
Dispersion correction           -0.105672662
FINAL SINGLE POINT ENERGY     -1189.452260102664
Dispersion correction             ... done (  0.0 sec)
                    ***********************HURRAY********************

CARTESIAN COORDINATES (ANGSTROEM)
---------------------------------
  O      1.524140    1.055406    2.679423
  O     -3.499974   -2.644006    2.164282
  C      1.265316   -0.078794    0.541349
  C      0.017427   -0.764158    0.944975
  C     -2.348102   -1.225323    0.565010
  C     -1.152516   -0.614882    0.203048
  C      2.977548    0.306109   -1.156768
  C      1.783527   -0.271766   -0.738500
  C      1.959302    0.765832    1.425202
  C     -0.023085   -1.580889    2.075329
  C     -2.353247   -2.043854    1.700005
  C     -3.619150   -0.958931   -0.206714
  C      3.510977    0.048606   -2.550510
  C      3.663169    1.110110   -0.250202
  C     -1.193125   -2.225159    2.441917
  C      3.160302    1.341779    1.020830
  C     -4.251208   -2.204654   -0.763295
  C      2.532092    0.421402   -3.625136
  C     -5.496180   -2.603233   -0.518675
  C      2.031404   -0.416821   -4.524069
  H     -1.142201    0.037757   -0.661443
  H      1.240353   -0.915033   -1.420811
  H      0.870791   -1.713684    2.669694
  H     -4.339482   -0.436685    0.431650
  H     -3.382043   -0.281172   -1.030747
  H      3.784278   -1.005214   -2.663369
  H      4.430310    0.627591   -2.682027
  H      4.598884    1.571513   -0.544012
  H     -1.222983   -2.874475    3.307106
  H      3.676233    1.990122    1.716750
  H     -3.610678   -2.814517   -1.394637
  H      2.213000    1.460557   -3.628021
  H      0.554101    1.000893    2.750635
  H     -4.117753   -2.775277    1.428845
  H     -5.896408   -3.513614   -0.945915
  H     -6.166141   -2.016871    0.102197
  H      1.321019   -0.090678   -5.273371
  H      2.319384   -1.462481   -4.543505
  H     -4.861084   -0.645894    3.443174
  H     -3.061771   -1.636230    4.641178
  O     -2.013355    0.137963    4.596396
  C     -3.217400   -0.588634    4.892605
  C     -4.257052    0.075537    3.986626
  C     -2.173529    0.840893    3.460159
  O     -1.302300    1.436493    2.900312
  O     -3.454299    0.801447    3.040969
  H     -4.894553    0.786301    4.513567
  H     -3.431120   -0.481253    5.953411

 Multiplicity           Mult            ....    1
 Number of Electrons    NEL             ....  188
 Basis Dimension        Dim             ....  938

ORBITAL ENERGIES
----------------

  NO   OCC          E(Eh)            E(eV)
   0   2.0000     -19.195401      -522.3334
   1   2.0000     -19.194645      -522.3128
   2   2.0000     -19.156681      -521.2798
   3   2.0000     -19.126160      -520.4493
   4   2.0000     -19.120054      -520.2831
   5   2.0000     -10.357726      -281.8481
   6   2.0000     -10.259505      -279.1753
   7   2.0000     -10.257812      -279.1292
   8   2.0000     -10.233119      -278.4573
   9   2.0000     -10.214178      -277.9419
  10   2.0000     -10.198307      -277.5101
  11   2.0000     -10.190918      -277.3090
  12   2.0000     -10.185501      -277.1616
  13   2.0000     -10.183614      -277.1102
  14   2.0000     -10.174365      -276.8585
  15   2.0000     -10.171519      -276.7811
  16   2.0000     -10.170648      -276.7574
  17   2.0000     -10.169924      -276.7377
  18   2.0000     -10.167185      -276.6632
  19   2.0000     -10.166162      -276.6353
  20   2.0000     -10.166110      -276.6339
  21   2.0000     -10.161182      -276.4998
  22   2.0000     -10.157379      -276.3963
  23   2.0000     -10.156833      -276.3815
  24   2.0000     -10.154329      -276.3133
  25   2.0000     -10.150701      -276.2146
  26   2.0000      -1.173457       -31.9314
  27   2.0000      -1.062203       -28.9040
  28   2.0000      -1.060935       -28.8695
  29   2.0000      -1.055686       -28.7267
  30   2.0000      -1.029673       -28.0188
  31   2.0000      -0.866490       -23.5784
  32   2.0000      -0.844270       -22.9738
  33   2.0000      -0.820890       -22.3376
  34   2.0000      -0.795745       -21.6533
  35   2.0000      -0.792112       -21.5545
  36   2.0000      -0.769300       -20.9337
  37   2.0000      -0.760832       -20.7033
  38   2.0000      -0.732280       -19.9263
  39   2.0000      -0.715504       -19.4699
  40   2.0000      -0.693866       -18.8810
  41   2.0000      -0.692656       -18.8481
  42   2.0000      -0.666934       -18.1482
  43   2.0000      -0.626631       -17.0515
  44   2.0000      -0.621506       -16.9120
  45   2.0000      -0.616073       -16.7642
  46   2.0000      -0.588460       -16.0128
  47   2.0000      -0.580840       -15.8055
  48   2.0000      -0.574593       -15.6355
  49   2.0000      -0.556447       -15.1417
  50   2.0000      -0.548704       -14.9310
  51   2.0000      -0.543983       -14.8025
  52   2.0000      -0.535966       -14.5844
  53   2.0000      -0.526334       -14.3223
  54   2.0000      -0.519310       -14.1311
  55   2.0000      -0.495655       -13.4875
  56   2.0000      -0.486287       -13.2325
  57   2.0000      -0.477754       -13.0003
  58   2.0000      -0.469517       -12.7762
  59   2.0000      -0.462633       -12.5889
  60   2.0000      -0.458952       -12.4887
  61   2.0000      -0.455600       -12.3975
  62   2.0000      -0.453731       -12.3466
  63   2.0000      -0.451526       -12.2867
  64   2.0000      -0.440407       -11.9841
  65   2.0000      -0.426693       -11.6109
  66   2.0000      -0.425989       -11.5917
  67   2.0000      -0.420529       -11.4432
  68   2.0000      -0.416895       -11.3443
  69   2.0000      -0.413632       -11.2555
  70   2.0000      -0.400434       -10.8964
  71   2.0000      -0.395689       -10.7673
  72   2.0000      -0.394059       -10.7229
  73   2.0000      -0.392287       -10.6747
  74   2.0000      -0.390854       -10.6357
  75   2.0000      -0.377487       -10.2719
  76   2.0000      -0.373038       -10.1509
  77   2.0000      -0.365974        -9.9587
  78   2.0000      -0.356698        -9.7062
  79   2.0000      -0.351021        -9.5518
  80   2.0000      -0.346376        -9.4254
  81   2.0000      -0.339845        -9.2477
  82   2.0000      -0.334216        -9.0945
  83   2.0000      -0.327418        -8.9095
  84   2.0000      -0.324734        -8.8365
  85   2.0000      -0.322218        -8.7680
  86   2.0000      -0.316130        -8.6023
  87   2.0000      -0.302652        -8.2356
  88   2.0000      -0.287701        -7.8287
  89   2.0000      -0.258672        -7.0388
  90   2.0000      -0.253949        -6.9103
  91   2.0000      -0.250980        -6.8295
  92   2.0000      -0.222998        -6.0681
  93   2.0000      -0.201520        -5.4836
  94   0.0000      -0.027901        -0.7592
  95   0.0000      -0.017467        -0.4753
  96   0.0000      -0.005650        -0.1538
  97   0.0000       0.008323         0.2265
  98   0.0000       0.008977         0.2443

MULLIKEN ATOMIC CHARGES
-----------------------
   0 O :   -0.420186
   1 O :   -0.440215
   2 C :    0.109230
   3 C :    0.020417
   4 C :    0.111325
   5 C :   -0.205072
   6 C :    0.103229
   7 C :   -0.250978
   8 C :    0.236529
   9 C :   -0.124918
  10 C :    0.249442
  11 C :   -0.265816
  12 C :   -0.178940
  13 C :   -0.136720
  14 C :   -0.269241
  15 C :   -0.233177
  16 C :   -0.125536
  17 C :   -0.086824
  18 C :   -0.283180
  19 C :   -0.266951
  20 H :    0.115060
  21 H :    0.122542
  22 H :    0.114416
  23 H :    0.127404
  24 H :    0.118401
  25 H :    0.095196
  26 H :    0.103312
  27 H :    0.089501
  28 H :    0.105891
  29 H :    0.099971
  30 H :    0.119366
  31 H :    0.100292
  32 H :    0.332638
  33 H :    0.326256
  34 H :    0.125265
  35 H :    0.120675
  36 H :    0.106333
  37 H :    0.099927
  38 H :    0.113490
  39 H :    0.123479
  40 O :   -0.253696
  41 C :   -0.028806
  42 C :   -0.010220
  43 C :    0.455208
  44 O :   -0.337635
  45 O :   -0.266694
  46 H :    0.117450
  47 H :    0.122558
Sum of atomic charges:    0.0000000

LOEWDIN ATOMIC CHARGES
----------------------
   0 O :    0.089037
   1 O :    0.069510
   2 C :   -0.092851
   3 C :   -0.114175
   4 C :   -0.133861
   5 C :   -0.066163
   6 C :   -0.154026
   7 C :   -0.072079
   8 C :   -0.237150
   9 C :   -0.095974
  10 C :   -0.249939
  11 C :   -0.200034
  12 C :   -0.200915
  13 C :   -0.119572
  14 C :   -0.127692
  15 C :   -0.118474
  16 C :   -0.191738
  17 C :   -0.187342
  18 C :   -0.221854
  19 C :   -0.223642
  20 H :    0.153109
  21 H :    0.152915
  22 H :    0.153589
  23 H :    0.148972
  24 H :    0.154713
  25 H :    0.145226
  26 H :    0.146313
  27 H :    0.142144
  28 H :    0.146192
  29 H :    0.146319
  30 H :    0.145034
  31 H :    0.139481
  32 H :    0.178468
  33 H :    0.180147
  34 H :    0.123325
  35 H :    0.121465
  36 H :    0.117672
  37 H :    0.117614
  38 H :    0.127199
  39 H :    0.128844
  40 O :    0.270171
  41 C :   -0.255898
  42 C :   -0.259505
  43 C :   -0.611945
  44 O :    0.115719
  45 O :    0.268262
  46 H :    0.125140
  47 H :    0.128252

  Mayer bond orders larger than 0.100000
B(  0-O ,  8-C ) :   1.0983 B(  0-O , 32-H ) :   0.8341 B(  1-O , 10-C ) :   1.0308
B(  1-O , 33-H ) :   0.8544 B(  2-C ,  3-C ) :   0.8527 B(  2-C ,  7-C ) :   1.2981
B(  2-C ,  8-C ) :   1.2518 B(  3-C ,  5-C ) :   1.4278 B(  3-C ,  9-C ) :   1.3542
B(  4-C ,  5-C ) :   1.3381 B(  4-C , 10-C ) :   1.2634 B(  4-C , 11-C ) :   0.8976
B(  5-C , 20-H ) :   0.9575 B(  6-C ,  7-C ) :   1.3901 B(  6-C , 12-C ) :   0.9259
B(  6-C , 13-C ) :   1.3637 B(  7-C , 21-H ) :   0.9666 B(  8-C , 15-C ) :   1.4318
B(  9-C , 14-C ) :   1.3940 B(  9-C , 22-H ) :   0.9886 B( 10-C , 14-C ) :   1.3707
B( 11-C , 16-C ) :   0.9554 B( 11-C , 23-H ) :   0.9816 B( 11-C , 24-H ) :   0.9667
B( 12-C , 17-C ) :   0.9686 B( 12-C , 25-H ) :   0.9591 B( 12-C , 26-H ) :   0.9730
B( 13-C , 15-C ) :   1.4216 B( 13-C , 27-H ) :   0.9800 B( 14-C , 28-H ) :   0.9969
B( 15-C , 29-H ) :   0.9849 B( 16-C , 18-C ) :   1.8833 B( 16-C , 30-H ) :   0.9557
B( 17-C , 19-C ) :   1.9278 B( 17-C , 31-H ) :   0.9542 B( 18-C , 34-H ) :   0.9680
B( 18-C , 35-H ) :   0.9656 B( 19-C , 36-H ) :   0.9669 B( 19-C , 37-H ) :   0.9617
B( 38-H , 42-C ) :   0.9556 B( 39-H , 41-C ) :   0.9541 B( 40-O , 41-C ) :   0.9242
B( 40-O , 43-C ) :   1.1671 B( 41-C , 42-C ) :   0.9926 B( 41-C , 47-H ) :   0.9616
B( 42-C , 45-O ) :   0.9124 B( 42-C , 46-H ) :   0.9592 B( 43-C , 44-O ) :   1.9864
B( 43-C , 45-O ) :   1.1521

Dispersion correction           -0.105669143
FINAL SINGLE POINT ENERGY     -1189.452260598934

DIPOLE MOMENT
-------------

Method             : SCF
Type of density    : Electron Density
Multiplicity       :   1
Irrep              :   0
Energy             : -1189.3465914555115432 Eh
Relativity type    :
Basis              : AO
                                X                 Y                 Z
Electronic contribution:      3.024400127       5.638805658      15.406815121
Nuclear contribution   :     -5.476391073      -6.590864232     -14.994433666
                        -----------------------------------------
Total Dipole Moment    :     -2.451990946      -0.952058573       0.412381456
                        -----------------------------------------
Magnitude (a.u.)       :      2.662467575
Magnitude (Debye)      :      6.767454758

Rotational constants in cm-1:             0.010065             0.004372             0.003363
Rotational constants in MHz :           301.735051           131.059187           100.815963

                             ****ORCA TERMINATED NORMALLY****
TOTAL RUN TIME: 0 days 0 hours 21 minutes 27 seconds 28 msec
