                         Program Version 6.0.1  -  RELEASE   -
|  1> ! OPT B3LYP def2-TZVP TightSCF
|  2>
|  3> %maxcore 5000
|  4>
|  5> %pal
|  6> nprocs 25
|  7> end
|  8>
|  9> * xyz 0 1
| 10> O           1.57995245402407      1.01349424407342      2.75100898613981
| 11>   O          -3.52294925914809     -2.72342394803277      2.11751471998667
| 12>   C           1.23287581049049     -0.06761044616067      0.59782573848223
| 13>   C          -0.02479015487516     -0.73429337795215      1.00501942811838
| 14>   C          -2.37861144131323     -1.22658171024946      0.58331152005785
| 15>   C          -1.18821701578673     -0.58797840181368      0.25155365846055
| 16>   C           2.92700027033283      0.28256279835054     -1.12789807178654
| 17>   C           1.71930014927413     -0.25477749998157     -0.69606458374371
| 18>   C           1.97802764662062      0.73109562243285      1.48297748215845
| 19>   C          -0.07334087406215     -1.56142467971624      2.12809830961476
| 20>   C          -2.38568677033552     -2.07085165525620      1.69967336101115
| 21>   C          -3.63704057841663     -0.98549544010899     -0.21789947605607
| 22>   C           3.42231544369045      0.02870994730354     -2.53627689058215
| 23>   C           3.66328785757134      1.03867634770242     -0.21985489330169
| 24>   C          -1.23761256233090     -2.23243782630261      2.46463222006921
| 25>   C           3.19414819445337      1.26433776618974      1.06489582110442
| 26>   C          -4.19785904859539     -2.23944858944127     -0.82970430639920
| 27>   C           2.43271142454535      0.44488436087717     -3.58480122565224
| 28>   C          -5.42857874930029     -2.70181029931035     -0.62974946088628
| 29>   C           1.88854985733825     -0.36596440984366     -4.48358175480661
| 30>   H          -1.17489842253953      0.07471184093596     -0.60515410029497
| 31>   H           1.13998179305731     -0.86493169057672     -1.37889719381774
| 32>   H           0.81241626549305     -1.68799284371679      2.73553452379487
| 33>   H          -4.40067888718404     -0.51412924803365      0.40981222794061
| 34>   H          -3.40348741586382     -0.27311308054743     -1.01309050593000
| 35>   H           3.66133401675062     -1.03121703174704     -2.66853114109854
| 36>   H           4.35589108759455      0.58134092910821     -2.68055986828916
| 37>   H           4.61153680241324      1.46733368987170     -0.52293097442508
| 38>   H          -1.26957790902912     -2.89628192678516      3.31869617817806
| 39>   H           3.74898089080306      1.87705840546360      1.76316027835355
| 40>   H          -3.51402900612451     -2.79879640753080     -1.46233653336092
| 41>   H           2.14516253032457      1.49306553641263     -3.56788969424293
| 42>   H           0.60848430715900      1.05214301854899      2.82378399186367
| 43>   H          -4.10640631325237     -2.87474260856277      1.35820016023690
| 44>   H          -5.77536263028321     -3.61545836865213     -1.09498128704182
| 45>   H          -6.14022310803343     -2.16714168462350     -0.00859566382059
| 46>   H           1.17314061100328     -0.00873035771271     -5.21367669333605
| 47>   H           2.14463190827999     -1.41935190460939     -4.52239898722033
| 48>   H          -4.47948222303594     -0.68448410993095      3.15419822859287
| 49>   H          -3.01296139784027     -1.56076210836663      4.77484016759611
| 50>   O          -1.90596989282039      0.15980072177741      4.55472420930071
| 51>   C          -3.14590117944647     -0.48542974953390      4.87509722676122
| 52>   C          -4.13138879483537      0.08254785928043      3.84140604283459
| 53>   C          -2.05929428686856      0.97943395320875      3.50134729532993
| 54>   O          -1.17277788709974      1.59755350506741      2.99018375746649
| 55>   O          -3.34283298095691      1.02756861441647      3.10063705549192
| 56>   H          -4.97238601511136      0.60970004247979      4.28761665786796
| 57>   H          -3.40456930953034     -0.23922982350174      5.90404049937959
| 58> *
| 59>
| 60>                          ****END OF INPUT****
 Total Charge           Charge          ....    0
 Multiplicity           Mult            ....    1
 Number of Electrons    NEL             ....  188
FINAL SINGLE POINT ENERGY     -1189.346128164144
FINAL SINGLE POINT ENERGY     -1189.346258162050
FINAL SINGLE POINT ENERGY     -1189.347748355916
FINAL SINGLE POINT ENERGY     -1189.347900628052
FINAL SINGLE POINT ENERGY     -1189.348374875876
FINAL SINGLE POINT ENERGY     -1189.348438399383
FINAL SINGLE POINT ENERGY     -1189.348496546244
FINAL SINGLE POINT ENERGY     -1189.348532067226
FINAL SINGLE POINT ENERGY     -1189.348586325037
FINAL SINGLE POINT ENERGY     -1189.348653544030
FINAL SINGLE POINT ENERGY     -1189.349013534101
FINAL SINGLE POINT ENERGY     -1189.349027249868
FINAL SINGLE POINT ENERGY     -1189.349035337358
FINAL SINGLE POINT ENERGY     -1189.349039628440
FINAL SINGLE POINT ENERGY     -1189.349043457455
FINAL SINGLE POINT ENERGY     -1189.349048202449
FINAL SINGLE POINT ENERGY     -1189.349052209192
FINAL SINGLE POINT ENERGY     -1189.349055448995
FINAL SINGLE POINT ENERGY     -1189.349057513764
                    ***********************HURRAY********************

CARTESIAN COORDINATES (ANGSTROEM)
---------------------------------
  O      1.424976    1.163447    2.561964
  O     -3.610029   -2.642574    1.973878
  C      1.204532   -0.068854    0.464312
  C     -0.064616   -0.737240    0.852714
  C     -2.414293   -1.241940    0.384473
  C     -1.208986   -0.622335    0.060628
  C      2.977026    0.232704   -1.200327
  C      1.766530   -0.320514   -0.790244
  C      1.880857    0.811052    1.331197
  C     -0.147165   -1.526337    2.003626
  C     -2.458768   -2.027753    1.544561
  C     -3.649649   -1.026416   -0.466849
  C      3.551929   -0.084774   -2.568107
  C      3.638543    1.074876   -0.308063
  C     -1.326992   -2.172175    2.340167
  C      3.097508    1.364279    0.935540
  C     -4.235477   -2.295377   -1.029660
  C      2.709216    0.428828   -3.703144
  C     -5.497307   -2.689098   -0.878692
  C      2.205980   -0.314864   -4.681425
  H     -1.168613   -0.000056   -0.826165
  H      1.242690   -0.995629   -1.458047
  H      0.724206   -1.645000    2.634883
  H     -4.417387   -0.499075    0.110072
  H     -3.377325   -0.367165   -1.295962
  H      3.686311   -1.165015   -2.681989
  H      4.549351    0.362470   -2.635109
  H      4.587498    1.517857   -0.589480
  H     -1.385978   -2.801249    3.219491
  H      3.598381    2.037610    1.619393
  H     -3.548307   -2.921713   -1.593028
  H      2.507237    1.497287   -3.690554
  H      0.464389    1.048176    2.659046
  H     -4.211521   -2.772576    1.225536
  H     -5.859806   -3.611739   -1.314144
  H     -6.218558   -2.090341   -0.331191
  H      1.607136    0.117440   -5.473582
  H      2.378623   -1.385046   -4.727624
  H     -4.379752   -0.977695    3.908472
  H     -2.981963   -1.362051    5.832810
  O     -1.902571    0.160696    4.959714
  C     -3.111666   -0.313380    5.574273
  C     -4.165658   -0.079561    4.488664
  C     -2.200160    0.891295    3.864525
  O     -1.398995    1.477086    3.201296
  O     -3.527851    0.877668    3.623656
  H     -5.088578    0.356551    4.864988
  H     -3.292134    0.270350    6.478425

 Multiplicity           Mult            ....    1
 Number of Electrons    NEL             ....  188
 Basis Dimension        Dim             ....  938

ORBITAL ENERGIES
----------------

  NO   OCC          E(Eh)            E(eV)
   0   2.0000     -19.194978      -522.3219
   1   2.0000     -19.194523      -522.3095
   2   2.0000     -19.155340      -521.2433
   3   2.0000     -19.125121      -520.4210
   4   2.0000     -19.122960      -520.3622
   5   2.0000     -10.357009      -281.8285
   6   2.0000     -10.261739      -279.2361
   7   2.0000     -10.258926      -279.1596
   8   2.0000     -10.233019      -278.4546
   9   2.0000     -10.215920      -277.9893
  10   2.0000     -10.196345      -277.4567
  11   2.0000     -10.190812      -277.3061
  12   2.0000     -10.183719      -277.1131
  13   2.0000     -10.183415      -277.1048
  14   2.0000     -10.175363      -276.8857
  15   2.0000     -10.172057      -276.7957
  16   2.0000     -10.170945      -276.7655
  17   2.0000     -10.169089      -276.7150
  18   2.0000     -10.167998      -276.6853
  19   2.0000     -10.167293      -276.6661
  20   2.0000     -10.166694      -276.6498
  21   2.0000     -10.161834      -276.5176
  22   2.0000     -10.158088      -276.4156
  23   2.0000     -10.157977      -276.4126
  24   2.0000     -10.154149      -276.3084
  25   2.0000     -10.151165      -276.2272
  26   2.0000      -1.172046       -31.8930
  27   2.0000      -1.060229       -28.8503
  28   2.0000      -1.059651       -28.8346
  29   2.0000      -1.054548       -28.6957
  30   2.0000      -1.031468       -28.0677
  31   2.0000      -0.864188       -23.5158
  32   2.0000      -0.843056       -22.9407
  33   2.0000      -0.818080       -22.2611
  34   2.0000      -0.795960       -21.6592
  35   2.0000      -0.790781       -21.5182
  36   2.0000      -0.767588       -20.8871
  37   2.0000      -0.758944       -20.6519
  38   2.0000      -0.732515       -19.9328
  39   2.0000      -0.714541       -19.4437
  40   2.0000      -0.692998       -18.8574
  41   2.0000      -0.691674       -18.8214
  42   2.0000      -0.666974       -18.1493
  43   2.0000      -0.625813       -17.0292
  44   2.0000      -0.620584       -16.8869
  45   2.0000      -0.614369       -16.7178
  46   2.0000      -0.587567       -15.9885
  47   2.0000      -0.580163       -15.7871
  48   2.0000      -0.573936       -15.6176
  49   2.0000      -0.556015       -15.1299
  50   2.0000      -0.548114       -14.9149
  51   2.0000      -0.543133       -14.7794
  52   2.0000      -0.535274       -14.5655
  53   2.0000      -0.527096       -14.3430
  54   2.0000      -0.519034       -14.1236
  55   2.0000      -0.493513       -13.4292
  56   2.0000      -0.484740       -13.1905
  57   2.0000      -0.476387       -12.9631
  58   2.0000      -0.468569       -12.7504
  59   2.0000      -0.460009       -12.5175
  60   2.0000      -0.457709       -12.4549
  61   2.0000      -0.454535       -12.3685
  62   2.0000      -0.452684       -12.3182
  63   2.0000      -0.451781       -12.2936
  64   2.0000      -0.439343       -11.9551
  65   2.0000      -0.426804       -11.6139
  66   2.0000      -0.423867       -11.5340
  67   2.0000      -0.418731       -11.3942
  68   2.0000      -0.414797       -11.2872
  69   2.0000      -0.412737       -11.2312
  70   2.0000      -0.399789       -10.8788
  71   2.0000      -0.394819       -10.7436
  72   2.0000      -0.392968       -10.6932
  73   2.0000      -0.392840       -10.6897
  74   2.0000      -0.390828       -10.6350
  75   2.0000      -0.379403       -10.3241
  76   2.0000      -0.371954       -10.1214
  77   2.0000      -0.365034        -9.9331
  78   2.0000      -0.354277        -9.6404
  79   2.0000      -0.348923        -9.4947
  80   2.0000      -0.347425        -9.4539
  81   2.0000      -0.341040        -9.2802
  82   2.0000      -0.332461        -9.0467
  83   2.0000      -0.328325        -8.9342
  84   2.0000      -0.325044        -8.8449
  85   2.0000      -0.319764        -8.7012
  86   2.0000      -0.314803        -8.5662
  87   2.0000      -0.305731        -8.3194
  88   2.0000      -0.285512        -7.7692
  89   2.0000      -0.257929        -7.0186
  90   2.0000      -0.253023        -6.8851
  91   2.0000      -0.250157        -6.8071
  92   2.0000      -0.222206        -6.0465
  93   2.0000      -0.201536        -5.4841
  94   0.0000      -0.026263        -0.7147
  95   0.0000      -0.016750        -0.4558
  96   0.0000      -0.004750        -0.1293
  97   0.0000       0.008021         0.2183
  98   0.0000       0.009043         0.2461

MULLIKEN ATOMIC CHARGES
-----------------------
   0 O :   -0.408877
   1 O :   -0.435590
   2 C :    0.103796
   3 C :    0.077886
   4 C :    0.106844
   5 C :   -0.246429
   6 C :    0.127721
   7 C :   -0.257550
   8 C :    0.225347
   9 C :   -0.171849
  10 C :    0.249135
  11 C :   -0.256253
  12 C :   -0.195104
  13 C :   -0.136179
  14 C :   -0.231341
  15 C :   -0.230823
  16 C :   -0.138097
  17 C :   -0.085400
  18 C :   -0.271907
  19 C :   -0.266115
  20 H :    0.117114
  21 H :    0.114180
  22 H :    0.116074
  23 H :    0.128576
  24 H :    0.118373
  25 H :    0.099624
  26 H :    0.103720
  27 H :    0.090606
  28 H :    0.098538
  29 H :    0.100426
  30 H :    0.118117
  31 H :    0.100884
  32 H :    0.330213
  33 H :    0.324253
  34 H :    0.123891
  35 H :    0.120396
  36 H :    0.106594
  37 H :    0.098828
  38 H :    0.129729
  39 H :    0.118177
  40 O :   -0.256237
  41 C :   -0.018154
  42 C :   -0.032872
  43 C :    0.447244
  44 O :   -0.331984
  45 O :   -0.257027
  46 H :    0.118601
  47 H :    0.112896
Sum of atomic charges:   -0.0000000

LOEWDIN ATOMIC CHARGES
----------------------
   0 O :    0.092330
   1 O :    0.069075
   2 C :   -0.092869
   3 C :   -0.114026
   4 C :   -0.130628
   5 C :   -0.068674
   6 C :   -0.153397
   7 C :   -0.072657
   8 C :   -0.235764
   9 C :   -0.098363
  10 C :   -0.243343
  11 C :   -0.200914
  12 C :   -0.201550
  13 C :   -0.119915
  14 C :   -0.127112
  15 C :   -0.119354
  16 C :   -0.194265
  17 C :   -0.186733
  18 C :   -0.220465
  19 C :   -0.223935
  20 H :    0.152503
  21 H :    0.151930
  22 H :    0.153016
  23 H :    0.149693
  24 H :    0.154247
  25 H :    0.144908
  26 H :    0.146528
  27 H :    0.142279
  28 H :    0.145793
  29 H :    0.146492
  30 H :    0.144415
  31 H :    0.139331
  32 H :    0.179800
  33 H :    0.181442
  34 H :    0.123158
  35 H :    0.121843
  36 H :    0.117922
  37 H :    0.117205
  38 H :    0.129049
  39 H :    0.130780
  40 O :    0.263258
  41 C :   -0.257732
  42 C :   -0.257724
  43 C :   -0.608054
  44 O :    0.112828
  45 O :    0.263107
  46 H :    0.128213
  47 H :    0.126331

  Mayer bond orders larger than 0.100000
B(  0-O ,  8-C ) :   1.1373 B(  0-O , 32-H ) :   0.8380 B(  1-O , 10-C ) :   1.0431
B(  1-O , 33-H ) :   0.8591 B(  2-C ,  3-C ) :   0.8625 B(  2-C ,  7-C ) :   1.2991
B(  2-C ,  8-C ) :   1.2489 B(  3-C ,  5-C ) :   1.4220 B(  3-C ,  9-C ) :   1.3507
B(  4-C ,  5-C ) :   1.3529 B(  4-C , 10-C ) :   1.2780 B(  4-C , 11-C ) :   0.9019
B(  5-C , 20-H ) :   0.9553 B(  6-C ,  7-C ) :   1.3864 B(  6-C , 12-C ) :   0.9121
B(  6-C , 13-C ) :   1.3629 B(  7-C , 21-H ) :   0.9716 B(  8-C , 15-C ) :   1.4218
B(  9-C , 14-C ) :   1.3869 B(  9-C , 22-H ) :   0.9919 B( 10-C , 14-C ) :   1.3718
B( 11-C , 16-C ) :   0.9559 B( 11-C , 23-H ) :   0.9801 B( 11-C , 24-H ) :   0.9654
B( 12-C , 17-C ) :   0.9675 B( 12-C , 25-H ) :   0.9653 B( 12-C , 26-H ) :   0.9726
B( 13-C , 15-C ) :   1.4234 B( 13-C , 27-H ) :   0.9786 B( 14-C , 28-H ) :   1.0014
B( 15-C , 29-H ) :   0.9840 B( 16-C , 18-C ) :   1.8902 B( 16-C , 30-H ) :   0.9560
B( 17-C , 19-C ) :   1.9261 B( 17-C , 31-H ) :   0.9548 B( 18-C , 34-H ) :   0.9675
B( 18-C , 35-H ) :   0.9641 B( 19-C , 36-H ) :   0.9661 B( 19-C , 37-H ) :   0.9622
B( 38-H , 42-C ) :   0.9507 B( 39-H , 41-C ) :   0.9593 B( 40-O , 41-C ) :   0.9291
B( 40-O , 43-C ) :   1.1471 B( 41-C , 42-C ) :   0.9890 B( 41-C , 47-H ) :   0.9603
B( 42-C , 45-O ) :   0.9236 B( 42-C , 46-H ) :   0.9603 B( 43-C , 44-O ) :   2.0012
B( 43-C , 45-O ) :   1.1654

FINAL SINGLE POINT ENERGY     -1189.349058670853

DIPOLE MOMENT
-------------

Method             : SCF
Type of density    : Electron Density
Multiplicity       :   1
Irrep              :   0
Energy             : -1189.3490586708526280 Eh
Relativity type    :
Basis              : AO
                                X                 Y                 Z
Electronic contribution:      2.227185871       5.936122803      16.242584563
Nuclear contribution   :     -4.573712640      -6.958737740     -15.569628909
                        -----------------------------------------
Total Dipole Moment    :     -2.346526768      -1.022614937       0.672955654
                        -----------------------------------------
Magnitude (a.u.)       :      2.646657986
Magnitude (Debye)      :      6.727269976

Rotational constants in cm-1:             0.009133             0.004196             0.003122
Rotational constants in MHz :           273.814610           125.778747            93.594932

                             ****ORCA TERMINATED NORMALLY****
TOTAL RUN TIME: 0 days 0 hours 30 minutes 29 seconds 432 msec
