                         Program Version 6.0.1  -  RELEASE   -
|  1> ! Opt B3LYP def2-TZVP TightSCF TightOpt CPCM(water)
|  2>
|  3> %maxcore 5000
|  4>
|  5> %pal
|  6> nprocs 20
|  7> end
|  8>
|  9> * xyz 0 1
| 10> O         -1.10230       -0.69800        0.00020
| 11> O          1.10230       -0.69800        0.00020
| 12> O          0.00010        1.32640        0.00020
| 13> C          0.00000        0.10280        0.00050
| 14> C         -2.36110       -0.01660       -0.00060
| 15> C          2.36100       -0.01660       -0.00060
| 16> H         -2.45960        0.59780        0.89950
| 17> H         -3.15470       -0.76840       -0.00080
| 18> H         -2.45870        0.59750       -0.90100
| 19> H          3.15470       -0.76850       -0.00090
| 20> H          2.45960        0.59780        0.89950
| 21> H          2.45870        0.59740       -0.90090
| 22> *
| 23>
| 24>                          ****END OF INPUT****
 Total Charge           Charge          ....    0
 Multiplicity           Mult            ....    1
 Number of Electrons    NEL             ....   48
FINAL SINGLE POINT ENERGY      -343.586408204016
FINAL SINGLE POINT ENERGY      -343.588882760820
FINAL SINGLE POINT ENERGY      -343.589149017611
FINAL SINGLE POINT ENERGY      -343.589103186486
FINAL SINGLE POINT ENERGY      -343.589216261231
FINAL SINGLE POINT ENERGY      -343.589219165390
FINAL SINGLE POINT ENERGY      -343.589219540872
                    ***********************HURRAY********************

CARTESIAN COORDINATES (ANGSTROEM)
---------------------------------
  O     -1.078820   -0.684512   -0.000331
  O      1.078804   -0.684536   -0.000333
  O      0.000014    1.307321   -0.000506
  C      0.000001    0.097600   -0.000415
  C     -2.354165   -0.007746   -0.000380
  C      2.354163   -0.007798   -0.000383
  H     -2.453870    0.608198    0.891998
  H     -3.097414   -0.799515   -0.000304
  H     -2.453884    0.608041   -0.892864
  H      3.097395   -0.799583   -0.000321
  H      2.453888    0.608134    0.892000
  H      2.453888    0.607996   -0.892862

 Multiplicity           Mult            ....    1
 Number of Electrons    NEL             ....   48
 Basis Dimension        Dim             ....  222

ORBITAL ENERGIES
----------------

  NO   OCC          E(Eh)            E(eV)
   0   2.0000     -19.179909      -521.9119
   1   2.0000     -19.179899      -521.9116
   2   2.0000     -19.119620      -520.2713
   3   2.0000     -10.348704      -281.6026
   4   2.0000     -10.221898      -278.1520
   5   2.0000     -10.221896      -278.1519
   6   2.0000      -1.149938       -31.2914
   7   2.0000      -1.060681       -28.8626
   8   2.0000      -1.028395       -27.9841
   9   2.0000      -0.759625       -20.6704
  10   2.0000      -0.695982       -18.9386
  11   2.0000      -0.580205       -15.7882
  12   2.0000      -0.549999       -14.9662
  13   2.0000      -0.513925       -13.9846
  14   2.0000      -0.502239       -13.6666
  15   2.0000      -0.459382       -12.5004
  16   2.0000      -0.449034       -12.2188
  17   2.0000      -0.435666       -11.8551
  18   2.0000      -0.404119       -10.9966
  19   2.0000      -0.380259       -10.3474
  20   2.0000      -0.365793        -9.9537
  21   2.0000      -0.321773        -8.7559
  22   2.0000      -0.313695        -8.5361
  23   2.0000      -0.303653        -8.2628
  24   0.0000       0.028518         0.7760
  25   0.0000       0.042600         1.1592
  26   0.0000       0.068349         1.8599
  27   0.0000       0.071691         1.9508
  28   0.0000       0.105677         2.8756

MULLIKEN ATOMIC CHARGES
-----------------------
   0 O :   -0.286685
   1 O :   -0.286682
   2 O :   -0.426883
   3 C :    0.492672
   4 C :   -0.180769
   5 C :   -0.180769
   6 H :    0.142269
   7 H :    0.150019
   8 H :    0.142269
   9 H :    0.150020
  10 H :    0.142269
  11 H :    0.142269
Sum of atomic charges:    0.0000000

LOEWDIN ATOMIC CHARGES
----------------------
   0 O :    0.231398
   1 O :    0.231399
   2 O :    0.040845
   3 C :   -0.641222
   4 C :   -0.282019
   5 C :   -0.282019
   6 H :    0.115324
   7 H :    0.120161
   8 H :    0.115324
   9 H :    0.120161
  10 H :    0.115324
  11 H :    0.115324

  Mayer bond orders larger than 0.100000
B(  0-O ,  3-C ) :   1.2236 B(  0-O ,  4-C ) :   0.8672 B(  1-O ,  3-C ) :   1.2236
B(  1-O ,  5-C ) :   0.8672 B(  2-O ,  3-C ) :   1.9095 B(  4-C ,  6-H ) :   0.9705
B(  4-C ,  7-H ) :   0.9627 B(  4-C ,  8-H ) :   0.9705 B(  5-C ,  9-H ) :   0.9627
B(  5-C , 10-H ) :   0.9705 B(  5-C , 11-H ) :   0.9705

FINAL SINGLE POINT ENERGY      -343.589219606976

DIPOLE MOMENT
-------------

Method             : SCF
Type of density    : Electron Density
Multiplicity       :   1
Irrep              :   0
Energy             :  -343.5892196069759166 Eh
Relativity type    :
Basis              : AO
                                X                 Y                 Z
Electronic contribution:     -0.000009538      -1.001341769       0.000025613
Nuclear contribution   :      0.000005833       0.728067107      -0.000005257
                        -----------------------------------------
Total Dipole Moment    :     -0.000003705      -0.273274662       0.000020356
                        -----------------------------------------
Magnitude (a.u.)       :      0.273274663
Magnitude (Debye)      :      0.694608991

Rotational constants in cm-1:             0.348039             0.077612             0.065033
Rotational constants in MHz :         10433.938749          2326.752069          1949.634751

                             ****ORCA TERMINATED NORMALLY****
TOTAL RUN TIME: 0 days 0 hours 1 minutes 4 seconds 476 msec
