                         Program Version 6.0.1  -  RELEASE   -
|  1> ! OPT B3LYP def2-TZVP TightSCF
|  2>
|  3> %maxcore 5000
|  4>
|  5> %pal
|  6> nprocs 25
|  7> end
|  8>
|  9> * xyz 0 1
| 10> O           1.46224954619142      1.94234318744980      2.24853726002476
| 11>   O          -3.97091791310041     -1.26302149071579      2.09651093415840
| 12>   C           1.21591146035804      0.30293886698119      0.45355641773744
| 13>   C          -0.14737513588776     -0.11675504522815      0.87144207967578
| 14>   C          -2.51915720093688     -0.42688785977378      0.33040695304466
| 15>   C          -1.22446130874119     -0.04354978874471     -0.01598988867094
| 16>   C           3.09333473376127      0.06336083590990     -1.10193925738456
| 17>   C           1.81105903395527     -0.27061339172254     -0.67320562453111
| 18>   C           1.94171834350383      1.27724681205528      1.16419313345394
| 19>   C          -0.39346656632213     -0.62563690451878      2.15004711564239
| 20>   C          -2.72938177054243     -0.91656186468589      1.62795083561869
| 21>   C          -3.66078152021991     -0.26143377752370     -0.65366219237405
| 22>   C           3.70632149030324     -0.60368242285193     -2.31895272695165
| 23>   C           3.79441170869111      1.01643765342367     -0.36466028305597
| 24>   C          -1.66709158197923     -1.02861823647942      2.51967643786603
| 25>   C           3.22819356817099      1.61752279757796      0.74877124677764
| 26>   C          -4.45721048883906     -1.51699075816670     -0.90103810056196
| 27>   C           2.93255580259427     -0.37002006507946     -3.58650860473203
| 28>   C          -5.77896561347465     -1.61210227468210     -0.77605762362475
| 29>   C           2.43704031471370     -1.32221145987133     -4.36816360536569
| 30>   H          -1.05259042283376      0.34968469960138     -1.01156271484384
| 31>   H           1.24952917938246     -1.01905292661249     -1.22094475097750
| 32>   H           0.42078305230848     -0.72058786357960      2.85768032943187
| 33>   H          -4.33613469303818      0.53420032413957     -0.32292074351375
| 34>   H          -3.23428539415962      0.07412760531489     -1.60424191592671
| 35>   H           3.80271148429996     -1.68101740147873     -2.15168045568068
| 36>   H           4.72283786102324     -0.21678479347777     -2.44667621926788
| 37>   H           4.79764974851409      1.29723810553355     -0.66560714980959
| 38>   H          -1.85517766444862     -1.43363127499440      3.50594323921489
| 39>   H           3.76537949369805      2.37100606114776      1.31063374937534
| 40>   H          -3.88755143022741     -2.39239313074895     -1.20438740773260
| 41>   H           2.77788905571678      0.67228042471027     -3.85615122517874
| 42>   H           0.51974996372733      1.77798641516630      2.40601343372632
| 43>   H          -4.57883105527951     -1.40377672485753      1.35428951642568
| 44>   H          -6.30177176467157     -2.53806528433518     -0.98206197211550
| 45>   H          -6.38238676835377     -0.75787976344076     -0.48546508346197
| 46>   H           1.89073349373441     -1.08754836152953     -5.27321067949649
| 47>   H           2.56305308524622     -2.37394879679727     -4.13211802788498
| 48>   H          -5.16901431364492      2.76204519545322      4.29020373134835
| 49>   H          -4.23771206790790      1.20919182734116      5.87716324926676
| 50>   C          -4.58078984821462      1.96741393307265      3.83242830720747
| 51>   O          -2.51539647179017      1.36507221777971      4.76002376609143
| 52>   C          -2.29876020537116      2.19182271357712      3.72419160052121
| 53>   C          -3.91445784173201      1.03235000821223      4.85320384829332
| 54>   O          -3.46096971692836      2.56933740229284      3.15387940220939
| 55>   O          -1.22580312339098      2.56628295245260      3.35229345095389
| 56>   H          -5.18381068869654      1.44044835105403      3.09743597678379
| 57>   H          -4.03381168819741     -0.01904750342243      4.59744230763152
| 58>   O          -5.75272754500291      2.60695995232495      0.45731809596844
| 59>   C          -4.88459556362650      3.42271983586204      0.54113386311490
| 60>   O          -3.71600130519071      3.37009318857127     -0.12979265096224
| 61>   O          -4.94504017138703      4.52402138628079      1.31992633465224
| 62>   C          -2.81995099381171      4.38497203913843      0.35929202446088
| 63>   C          -3.74012125328735      5.29613947702298      1.18333278784279
| 64>   H          -2.05107510359316      3.90619506330108      0.96478110889248
| 65>   H          -3.98731270132427      6.23103757113459      0.67816236939603
| 66>   H          -2.36836465004462      4.88427143039693     -0.49599019594673
| 67>   H          -3.34907614889556      5.50472584143866      2.17705386564295
| 68> *
| 69>
| 70>                          ****END OF INPUT****
 Total Charge           Charge          ....    0
 Multiplicity           Mult            ....    1
 Number of Electrons    NEL             ....  234
FINAL SINGLE POINT ENERGY     -1531.731934179909
FINAL SINGLE POINT ENERGY     -1531.731936991222
FINAL SINGLE POINT ENERGY     -1531.731895129995
FINAL SINGLE POINT ENERGY     -1531.731991183139
FINAL SINGLE POINT ENERGY     -1531.732027795064
FINAL SINGLE POINT ENERGY     -1531.732073941752
FINAL SINGLE POINT ENERGY     -1531.732159490224
FINAL SINGLE POINT ENERGY     -1531.732209288616
FINAL SINGLE POINT ENERGY     -1531.732274501073
FINAL SINGLE POINT ENERGY     -1531.732333373429
FINAL SINGLE POINT ENERGY     -1531.732629246933
FINAL SINGLE POINT ENERGY     -1531.732631637284
FINAL SINGLE POINT ENERGY     -1531.732635201054
FINAL SINGLE POINT ENERGY     -1531.732639462668
FINAL SINGLE POINT ENERGY     -1531.732646710323
FINAL SINGLE POINT ENERGY     -1531.732655048824
FINAL SINGLE POINT ENERGY     -1531.732660206806
FINAL SINGLE POINT ENERGY     -1531.732665295586
FINAL SINGLE POINT ENERGY     -1531.732666526809
                    ***********************HURRAY********************

CARTESIAN COORDINATES (ANGSTROEM)
---------------------------------
  O      1.448836    1.743129    2.477572
  O     -3.966405   -1.537212    2.197193
  C      1.147149    0.258350    0.558775
  C     -0.198353   -0.210559    0.979669
  C     -2.566065   -0.572226    0.456605
  C     -1.289099   -0.134710    0.109487
  C      2.982213    0.151507   -1.062846
  C      1.712122   -0.218242   -0.627700
  C      1.892772    1.175741    1.324541
  C     -0.412543   -0.775879    2.240813
  C     -2.742655   -1.124995    1.733667
  C     -3.727544   -0.406838   -0.503726
  C      3.554668   -0.407544   -2.351933
  C      3.704843    1.041199   -0.269581
  C     -1.666933   -1.235120    2.609065
  C      3.167680    1.549760    0.903290
  C     -4.456012   -1.687927   -0.817957
  C      2.816445    0.049715   -3.580087
  C     -5.768899   -1.866198   -0.693385
  C      2.252294   -0.750072   -4.477424
  H     -1.145578    0.306751   -0.870166
  H      1.138347   -0.924902   -1.217127
  H      0.413028   -0.871189    2.934714
  H     -4.438224    0.331478   -0.118789
  H     -3.333271    0.008616   -1.435500
  H      3.557603   -1.501469   -2.322394
  H      4.601192   -0.094131   -2.429180
  H      4.701147    1.344580   -0.571715
  H     -1.830813   -1.682827    3.580808
  H      3.720068    2.255307    1.510832
  H     -3.840144   -2.512223   -1.170056
  H      2.750515    1.127062   -3.713268
  H      0.490716    1.650935    2.601937
  H     -4.568199   -1.688939    1.452487
  H     -6.239556   -2.808235   -0.945906
  H     -6.419425   -1.066136   -0.354859
  H      1.735571   -0.356975   -5.344295
  H      2.290149   -1.829929   -4.379451
  H     -4.968095    3.045285    4.640273
  H     -4.288113    1.014206    5.762517
  C     -4.630429    2.253018    3.970938
  O     -2.599501    1.316596    4.618626
  C     -2.366705    2.215671    3.648897
  C     -4.017656    1.060940    4.710160
  O     -3.519330    2.755241    3.202214
  O     -1.287052    2.516739    3.229470
  H     -5.425919    1.984521    3.280298
  H     -4.226020    0.109118    4.221688
  O     -5.574804    2.708562    0.617286
  C     -4.638856    3.443736    0.516573
  O     -3.464722    3.115496   -0.059967
  O     -4.617135    4.719160    0.959604
  C     -2.493661    4.149898    0.185533
  C     -3.360502    5.333589    0.628419
  H     -1.814466    3.806654    0.965337
  H     -3.530387    6.061020   -0.166889
  H     -1.946112    4.333180   -0.736434
  H     -2.977395    5.837375    1.513277

 Multiplicity           Mult            ....    1
 Number of Electrons    NEL             ....  234
 Basis Dimension        Dim             .... 1148

ORBITAL ENERGIES
----------------

  NO   OCC          E(Eh)            E(eV)
   0   2.0000     -19.197598      -522.3932
   1   2.0000     -19.196316      -522.3583
   2   2.0000     -19.188503      -522.1457
   3   2.0000     -19.187423      -522.1163
   4   2.0000     -19.150493      -521.1114
   5   2.0000     -19.129179      -520.5314
   6   2.0000     -19.128956      -520.5254
   7   2.0000     -19.117894      -520.2244
   8   2.0000     -10.360565      -281.9253
   9   2.0000     -10.349986      -281.6374
  10   2.0000     -10.257591      -279.1232
  11   2.0000     -10.257037      -279.1082
  12   2.0000     -10.254760      -279.0462
  13   2.0000     -10.249667      -278.9076
  14   2.0000     -10.229452      -278.3575
  15   2.0000     -10.219197      -278.0785
  16   2.0000     -10.187779      -277.2236
  17   2.0000     -10.180021      -277.0125
  18   2.0000     -10.179306      -276.9930
  19   2.0000     -10.174623      -276.8656
  20   2.0000     -10.174464      -276.8613
  21   2.0000     -10.170400      -276.7507
  22   2.0000     -10.169692      -276.7314
  23   2.0000     -10.169215      -276.7184
  24   2.0000     -10.168920      -276.7104
  25   2.0000     -10.168561      -276.7006
  26   2.0000     -10.165575      -276.6193
  27   2.0000     -10.164025      -276.5772
  28   2.0000     -10.160493      -276.4811
  29   2.0000     -10.160099      -276.4704
  30   2.0000     -10.155935      -276.3570
  31   2.0000     -10.154144      -276.3083
  32   2.0000      -1.174935       -31.9716
  33   2.0000      -1.164858       -31.6974
  34   2.0000      -1.061773       -28.8923
  35   2.0000      -1.056736       -28.7552
  36   2.0000      -1.055865       -28.7315
  37   2.0000      -1.052921       -28.6514
  38   2.0000      -1.046581       -28.4789
  39   2.0000      -1.036989       -28.2179
  40   2.0000      -0.862228       -23.4624
  41   2.0000      -0.843963       -22.9654
  42   2.0000      -0.810769       -22.0621
  43   2.0000      -0.794815       -21.6280
  44   2.0000      -0.792291       -21.5593
  45   2.0000      -0.788061       -21.4442
  46   2.0000      -0.766723       -20.8636
  47   2.0000      -0.754638       -20.5347
  48   2.0000      -0.735134       -20.0040
  49   2.0000      -0.714086       -19.4313
  50   2.0000      -0.692773       -18.8513
  51   2.0000      -0.686004       -18.6671
  52   2.0000      -0.684896       -18.6370
  53   2.0000      -0.669346       -18.2138
  54   2.0000      -0.625855       -17.0304
  55   2.0000      -0.621604       -16.9147
  56   2.0000      -0.613536       -16.6952
  57   2.0000      -0.611216       -16.6320
  58   2.0000      -0.587237       -15.9795
  59   2.0000      -0.580593       -15.7987
  60   2.0000      -0.567732       -15.4488
  61   2.0000      -0.555964       -15.1286
  62   2.0000      -0.549731       -14.9589
  63   2.0000      -0.548435       -14.9237
  64   2.0000      -0.540982       -14.7209
  65   2.0000      -0.534138       -14.5346
  66   2.0000      -0.527101       -14.3431
  67   2.0000      -0.524656       -14.2766
  68   2.0000      -0.518013       -14.0959
  69   2.0000      -0.511976       -13.9316
  70   2.0000      -0.489404       -13.3174
  71   2.0000      -0.483681       -13.1616
  72   2.0000      -0.475694       -12.9443
  73   2.0000      -0.468614       -12.7516
  74   2.0000      -0.462477       -12.5847
  75   2.0000      -0.457336       -12.4447
  76   2.0000      -0.455232       -12.3875
  77   2.0000      -0.452544       -12.3144
  78   2.0000      -0.451014       -12.2727
  79   2.0000      -0.447307       -12.1719
  80   2.0000      -0.444292       -12.0898
  81   2.0000      -0.442387       -12.0380
  82   2.0000      -0.434937       -11.8352
  83   2.0000      -0.428330       -11.6554
  84   2.0000      -0.424673       -11.5559
  85   2.0000      -0.418367       -11.3843
  86   2.0000      -0.410785       -11.1780
  87   2.0000      -0.409701       -11.1485
  88   2.0000      -0.397742       -10.8231
  89   2.0000      -0.395937       -10.7740
  90   2.0000      -0.395146       -10.7525
  91   2.0000      -0.392667       -10.6850
  92   2.0000      -0.388408       -10.5691
  93   2.0000      -0.387087       -10.5332
  94   2.0000      -0.385779       -10.4976
  95   2.0000      -0.382238       -10.4012
  96   2.0000      -0.366585        -9.9753
  97   2.0000      -0.359208        -9.7745
  98   2.0000      -0.355585        -9.6760
  99   2.0000      -0.349968        -9.5231
 100   2.0000      -0.345991        -9.4149
 101   2.0000      -0.342577        -9.3220
 102   2.0000      -0.331807        -9.0289
 103   2.0000      -0.330491        -8.9931
 104   2.0000      -0.326124        -8.8743
 105   2.0000      -0.324226        -8.8226
 106   2.0000      -0.319878        -8.7043
 107   2.0000      -0.319738        -8.7005
 108   2.0000      -0.314181        -8.5493
 109   2.0000      -0.310964        -8.4618
 110   2.0000      -0.307202        -8.3594
 111   2.0000      -0.277377        -7.5478
 112   2.0000      -0.259768        -7.0686
 113   2.0000      -0.251598        -6.8463
 114   2.0000      -0.249220        -6.7816
 115   2.0000      -0.221458        -6.0262
 116   2.0000      -0.202424        -5.5082
 117   0.0000      -0.020343        -0.5536
 118   0.0000      -0.017189        -0.4677
 119   0.0000       0.000129         0.0035
 120   0.0000       0.005913         0.1609
 121   0.0000       0.009351         0.2544

MULLIKEN ATOMIC CHARGES
-----------------------
   0 O :   -0.400694
   1 O :   -0.432146
   2 C :    0.116887
   3 C :    0.094061
   4 C :    0.111120
   5 C :   -0.294012
   6 C :    0.131492
   7 C :   -0.258488
   8 C :    0.204035
   9 C :   -0.192067
  10 C :    0.239853
  11 C :   -0.272468
  12 C :   -0.195697
  13 C :   -0.139464
  14 C :   -0.211600
  15 C :   -0.231531
  16 C :   -0.137052
  17 C :   -0.086326
  18 C :   -0.272729
  19 C :   -0.264931
  20 H :    0.115093
  21 H :    0.117522
  22 H :    0.121682
  23 H :    0.171264
  24 H :    0.106008
  25 H :    0.101179
  26 H :    0.104034
  27 H :    0.090894
  28 H :    0.102843
  29 H :    0.100133
  30 H :    0.112547
  31 H :    0.098008
  32 H :    0.329845
  33 H :    0.325997
  34 H :    0.120866
  35 H :    0.133708
  36 H :    0.106570
  37 H :    0.099995
  38 H :    0.110865
  39 H :    0.120287
  40 C :   -0.033325
  41 O :   -0.252446
  42 C :    0.469899
  43 C :   -0.029321
  44 O :   -0.281917
  45 O :   -0.363656
  46 H :    0.147028
  47 H :    0.139819
  48 O :   -0.326818
  49 C :    0.421540
  50 O :   -0.264192
  51 O :   -0.260050
  52 C :   -0.040496
  53 C :   -0.012762
  54 H :    0.146465
  55 H :    0.108440
  56 H :    0.118073
  57 H :    0.116136
Sum of atomic charges:    0.0000000

LOEWDIN ATOMIC CHARGES
----------------------
   0 O :    0.094228
   1 O :    0.071753
   2 C :   -0.094229
   3 C :   -0.119787
   4 C :   -0.128736
   5 C :   -0.074446
   6 C :   -0.153725
   7 C :   -0.072081
   8 C :   -0.236526
   9 C :   -0.104785
  10 C :   -0.243521
  11 C :   -0.204076
  12 C :   -0.201532
  13 C :   -0.120905
  14 C :   -0.122436
  15 C :   -0.121732
  16 C :   -0.196566
  17 C :   -0.187691
  18 C :   -0.217731
  19 C :   -0.222676
  20 H :    0.151476
  21 H :    0.152553
  22 H :    0.152412
  23 H :    0.155966
  24 H :    0.153885
  25 H :    0.145315
  26 H :    0.146496
  27 H :    0.142303
  28 H :    0.147283
  29 H :    0.146203
  30 H :    0.142507
  31 H :    0.138440
  32 H :    0.179311
  33 H :    0.182745
  34 H :    0.121719
  35 H :    0.125602
  36 H :    0.118017
  37 H :    0.117669
  38 H :    0.126373
  39 H :    0.129093
  40 C :   -0.249006
  41 O :    0.270334
  42 C :   -0.610927
  43 C :   -0.248644
  44 O :    0.263459
  45 O :    0.096738
  46 H :    0.136700
  47 H :    0.132514
  48 O :    0.098087
  49 C :   -0.627094
  50 O :    0.261186
  51 O :    0.256690
  52 C :   -0.256064
  53 C :   -0.257536
  54 H :    0.132115
  55 H :    0.124568
  56 H :    0.127928
  57 H :    0.130782

  Mayer bond orders larger than 0.100000
B(  0-O ,  8-C ) :   1.1622 B(  0-O , 32-H ) :   0.8426 B(  1-O , 10-C ) :   1.0569
B(  1-O , 33-H ) :   0.8560 B(  2-C ,  3-C ) :   0.8648 B(  2-C ,  7-C ) :   1.3059
B(  2-C ,  8-C ) :   1.2413 B(  3-C ,  5-C ) :   1.4084 B(  3-C ,  9-C ) :   1.3419
B(  4-C ,  5-C ) :   1.3537 B(  4-C , 10-C ) :   1.2780 B(  4-C , 11-C ) :   0.9091
B(  5-C , 20-H ) :   0.9627 B(  6-C ,  7-C ) :   1.3876 B(  6-C , 12-C ) :   0.9081
B(  6-C , 13-C ) :   1.3614 B(  7-C , 21-H ) :   0.9695 B(  8-C , 15-C ) :   1.4182
B(  9-C , 14-C ) :   1.3935 B(  9-C , 22-H ) :   0.9946 B( 10-C , 14-C ) :   1.3755
B( 11-C , 16-C ) :   0.9323 B( 11-C , 23-H ) :   0.9741 B( 11-C , 24-H ) :   0.9587
B( 12-C , 17-C ) :   0.9667 B( 12-C , 25-H ) :   0.9657 B( 12-C , 26-H ) :   0.9730
B( 13-C , 15-C ) :   1.4228 B( 13-C , 27-H ) :   0.9793 B( 14-C , 28-H ) :   0.9915
B( 15-C , 29-H ) :   0.9860 B( 16-C , 18-C ) :   1.8936 B( 16-C , 30-H ) :   0.9580
B( 17-C , 19-C ) :   1.9260 B( 17-C , 31-H ) :   0.9555 B( 18-C , 34-H ) :   0.9666
B( 18-C , 35-H ) :   0.9642 B( 19-C , 36-H ) :   0.9661 B( 19-C , 37-H ) :   0.9624
B( 38-H , 40-C ) :   0.9645 B( 39-H , 43-C ) :   0.9605 B( 40-C , 43-C ) :   0.9846
B( 40-C , 44-O ) :   0.9041 B( 40-C , 46-H ) :   0.9543 B( 41-O , 42-C ) :   1.1852
B( 41-O , 43-C ) :   0.9111 B( 42-C , 44-O ) :   1.1398 B( 42-C , 45-O ) :   1.9480
B( 43-C , 47-H ) :   0.9501 B( 48-O , 49-C ) :   2.0554 B( 49-C , 50-O ) :   1.1541
B( 49-C , 51-O ) :   1.1523 B( 50-O , 52-C ) :   0.9125 B( 51-O , 53-C ) :   0.9276
B( 52-C , 53-C ) :   0.9836 B( 52-C , 54-H ) :   0.9531 B( 52-C , 56-H ) :   0.9613
B( 53-C , 55-H ) :   0.9633 B( 53-C , 57-H ) :   0.9586

FINAL SINGLE POINT ENERGY     -1531.732667503872

DIPOLE MOMENT
-------------

Method             : SCF
Type of density    : Electron Density
Multiplicity       :   1
Irrep              :   0
Energy             : -1531.7326675038716530 Eh
Relativity type    :
Basis              : AO
                                X                 Y                 Z
Electronic contribution:     -4.450899155       8.895683503      16.087923987
Nuclear contribution   :      3.187682464      -8.178933687     -15.906434046
                        -----------------------------------------
Total Dipole Moment    :     -1.263216691       0.716749816       0.181489941
                        -----------------------------------------
Magnitude (a.u.)       :      1.463688937
Magnitude (Debye)      :      3.720401614

Rotational constants in cm-1:             0.005651             0.002867             0.002714
Rotational constants in MHz :           169.400348            85.964820            81.350654

                             ****ORCA TERMINATED NORMALLY****
TOTAL RUN TIME: 0 days 1 hours 1 minutes 7 seconds 723 msec
