                         Program Version 6.0.1  -  RELEASE   -
|  1> ! OPT B3LYP def2-TZVP TightSCF D3BJ RIJCOSX
|  2>
|  3> %maxcore 5000
|  4>
|  5> %pal
|  6> nprocs 25
|  7> end
|  8>
|  9> * xyz 0 1
| 10> O           1.95284935867922      1.17731310654300      2.74848183437749
| 11>   O          -3.63627099320915     -1.85399156182872      2.15022873657765
| 12>   C           1.44235515580065      0.10465179235079      0.61268825401206
| 13>   C           0.11320465018837     -0.39967691600451      1.02429921964839
| 14>   C          -2.23571639153736     -0.78580654629664      0.48038590897253
| 15>   C          -0.97182552608199     -0.31440586258643      0.15076626278088
| 16>   C           3.13334523011462      0.28726027754548     -1.14926979252510
| 17>   C           1.88926326213862     -0.12652796608999     -0.69115054141661
| 18>   C           2.29120661261983      0.81647481168229      1.48036865782982
| 19>   C          -0.09679283149515     -1.00996709854688      2.26360735191454
| 20>   C          -2.41058713782409     -1.39822132751997      1.72613950602327
| 21>   C          -3.39324733731922     -0.60209338095948     -0.47400822708292
| 22>   C           3.56716260394627      0.00556370863103     -2.57244305016263
| 23>   C           3.97107045307560      0.94488793810559     -0.25154555688197
| 24>   C          -1.34288074366023     -1.51016514564202      2.60782857104775
| 25>   C           3.55565619890672      1.20479301216407      1.04470872313926
| 26>   C          -4.00897532319623     -1.90338127466987     -0.90434626591191
| 27>   C           2.48194970600579      0.25336179470892     -3.57786689390172
| 28>   C          -5.28498268895078     -2.23580911988676     -0.73074657081531
| 29>   C           1.99885451684605     -0.66044647253424     -4.40940818302475
| 30>   H          -0.84934018780441      0.15616445915065     -0.81502043375905
| 31>   H           1.23745017080149     -0.66122617020540     -1.36952266566203
| 32>   H           0.72446778386811     -1.11433615653995      2.95920093167412
| 33>   H          -4.16601511857956      0.02480672870421     -0.01556725653668
| 34>   H          -3.02711955982656     -0.05660957390086     -1.34619021644367
| 35>   H           3.91429429035317     -1.02921085935941     -2.66075140870657
| 36>   H           4.42796303702633      0.64220448500686     -2.80121932444294
| 37>   H           4.95346315090947      1.27132937124890     -0.57198813493987
| 38>   H          -1.49767544001850     -2.00489860951761      3.55778709707278
| 39>   H           4.18754031498793      1.74435617724723      1.73799210476497
| 40>   H          -3.33106259598629     -2.61408635730000     -1.36883482140281
| 41>   H           2.06391658920224      1.25561402270784     -3.58573246074322
| 42>   H           0.99043867521224      1.24128039128456      2.86014348867613
| 43>   H          -4.17735661579702     -2.09329012592185      1.38123549782539
| 44>   H          -5.67233177094036     -3.19310276806645     -1.05463889508933
| 45>   H          -5.99396587231848     -1.54724832571268     -0.28168653522597
| 46>   H           1.20687370740842     -0.42547785920579     -5.10907715014445
| 47>   H           2.37856413781809     -1.67676392187972     -4.41885178349386
| 48>   H          -4.48947465293643      0.76770678833839      2.33782726857662
| 49>   H          -3.50631290452784     -0.38503432454836      4.21081440048485
| 50>   O          -2.14890874995584      1.15056374332018      4.47468477881986
| 51>   C          -3.50279297512468      0.69646359242567      4.32358527059556
| 52>   C          -3.97097704434673      1.39911425119510      3.05377034838012
| 53>   C          -1.75828365867393      1.77818424897146      3.35918692089157
| 54>   O          -0.65826815080865      2.19319931505318      3.15269919940591
| 55>   O          -2.78544905236081      1.88495640693498      2.47841226778305
| 56>   F          -4.78558005109557      2.46585242685973      3.35118375367986
| 57>   H          -4.08315869265099      1.00616347295710      5.18912848702970
| 58>   H           1.85906546883912      4.83799840823615     -0.66080737176322
| 59>   H           2.28429544851340      3.22238010071194     -0.00349296020267
| 60>   C           1.50753317794856      3.82785513611798     -0.46638351447373
| 61>   F          -0.38609557620644      5.06135440623285      0.30687214272699
| 62>   C           0.22100333751292      3.82176704333288      0.34993060282366
| 63>   H           0.31079203634862      3.52999765239202      1.39184158234240
| 64>   O           1.11616710655746      3.22152682832046     -1.70794597630156
| 65>   O          -0.59523623404638      2.90249584566690     -0.32301335077587
| 66>   C          -0.08420658530813      2.63761753415344     -1.56233920173501
| 67>   O          -0.63114052994149      1.96394636462175     -2.37671724071175
| 68> *
| 69>
| 70>                          ****END OF INPUT****
 Total Charge           Charge          ....    0
 Multiplicity           Mult            ....    1
 Number of Electrons    NEL             ....  250
Dispersion correction           -0.135145752
FINAL SINGLE POINT ENERGY     -1730.375834415449
Dispersion correction             ... done (  0.0 sec)
Dispersion correction           -0.134985753
FINAL SINGLE POINT ENERGY     -1730.375852260537
Dispersion correction             ... done (  0.0 sec)
Dispersion correction           -0.135270540
FINAL SINGLE POINT ENERGY     -1730.375863734839
Dispersion correction             ... done (  0.0 sec)
FINAL SINGLE POINT ENERGY     -1730.375890341435
FINAL SINGLE POINT ENERGY     -1730.375902111420
FINAL SINGLE POINT ENERGY     -1730.375930455055
FINAL SINGLE POINT ENERGY     -1730.375961912954
FINAL SINGLE POINT ENERGY     -1730.376014158365
FINAL SINGLE POINT ENERGY     -1730.376068029907
FINAL SINGLE POINT ENERGY     -1730.376113798846
FINAL SINGLE POINT ENERGY     -1730.376342521962
FINAL SINGLE POINT ENERGY     -1730.376346877639
FINAL SINGLE POINT ENERGY     -1730.376352010024
FINAL SINGLE POINT ENERGY     -1730.376356656436
FINAL SINGLE POINT ENERGY     -1730.376360275434
FINAL SINGLE POINT ENERGY     -1730.376362988888
FINAL SINGLE POINT ENERGY     -1730.376365797670
Dispersion correction             ... done (  0.0 sec)
Dispersion correction           -0.135133605
FINAL SINGLE POINT ENERGY     -1730.376368163925
Dispersion correction             ... done (  0.0 sec)
Dispersion correction           -0.135147699
FINAL SINGLE POINT ENERGY     -1730.376370384887
Dispersion correction             ... done (  0.0 sec)
                    ***********************HURRAY********************

CARTESIAN COORDINATES (ANGSTROEM)
---------------------------------
  O      1.891586    1.164634    2.794389
  O     -3.648823   -1.818177    2.117479
  C      1.443166    0.130803    0.628256
  C      0.115384   -0.397402    1.011845
  C     -2.242598   -0.723045    0.469896
  C     -0.973563   -0.260408    0.150007
  C      3.166462    0.359556   -1.095963
  C      1.917173   -0.074427   -0.670619
  C      2.262947    0.838863    1.525046
  C     -0.088794   -1.068181    2.219505
  C     -2.415840   -1.384035    1.690900
  C     -3.406984   -0.467069   -0.458730
  C      3.646583    0.093739   -2.508323
  C      3.974974    1.016464   -0.170398
  C     -1.339666   -1.565631    2.550391
  C      3.529691    1.253838    1.120320
  C     -4.094181   -1.727560   -0.904527
  C      2.561329    0.196045   -3.538410
  C     -5.383439   -1.999334   -0.723469
  C      2.189797   -0.790743   -4.343557
  H     -0.845865    0.256747   -0.789737
  H      1.286704   -0.609966   -1.368514
  H      0.737914   -1.213301    2.901198
  H     -4.136144    0.193097    0.023234
  H     -3.031459    0.070121   -1.332866
  H      4.105828   -0.898996   -2.563097
  H      4.438112    0.813590   -2.741178
  H      4.959806    1.359814   -0.465161
  H     -1.494269   -2.105156    3.475734
  H      4.141751    1.792060    1.832741
  H     -3.458137   -2.460809   -1.392918
  H      2.043404    1.148833   -3.590598
  H      0.926277    1.245393    2.873292
  H     -4.207344   -2.013417    1.348142
  H     -5.822657   -2.927568   -1.065326
  H     -6.050818   -1.286781   -0.248963
  H      1.393057   -0.661069   -5.064867
  H      2.670457   -1.762876   -4.309348
  H     -4.684087    0.639253    2.705387
  H     -3.367275   -0.519631    4.358558
  O     -2.032794    1.055861    4.440668
  C     -3.379176    0.558979    4.497472
  C     -4.065303    1.270120    3.337078
  C     -1.841025    1.698964    3.283416
  O     -0.798597    2.140441    2.904954
  O     -3.000265    1.787127    2.580489
  F     -4.836069    2.316773    3.785393
  H     -3.818908    0.831144    5.453581
  H      1.845696    4.777987   -0.747462
  H      2.222581    3.136134   -0.127628
  C      1.478266    3.763676   -0.613830
  F     -0.458154    4.980324    0.073858
  C      0.142464    3.737944    0.117670
  H      0.159452    3.410842    1.152728
  O      1.163318    3.204766   -1.899886
  O     -0.630244    2.842608   -0.636513
  C     -0.037781    2.604925   -1.844223
  O     -0.525207    1.941543   -2.702284

 Multiplicity           Mult            ....    1
 Number of Electrons    NEL             ....  250
 Basis Dimension        Dim             .... 1198

ORBITAL ENERGIES
----------------

  NO   OCC          E(Eh)            E(eV)
   0   2.0000     -24.707922      -672.3367
   1   2.0000     -24.685668      -671.7312
   2   2.0000     -19.217903      -522.9457
   3   2.0000     -19.215753      -522.8872
   4   2.0000     -19.195330      -522.3315
   5   2.0000     -19.193942      -522.2937
   6   2.0000     -19.164101      -521.4817
   7   2.0000     -19.148760      -521.0642
   8   2.0000     -19.139007      -520.7989
   9   2.0000     -19.123810      -520.3853
  10   2.0000     -10.380886      -282.4783
  11   2.0000     -10.354860      -281.7701
  12   2.0000     -10.346306      -281.5373
  13   2.0000     -10.321613      -280.8654
  14   2.0000     -10.272542      -279.5301
  15   2.0000     -10.251089      -278.9463
  16   2.0000     -10.240588      -278.6606
  17   2.0000     -10.230523      -278.3867
  18   2.0000     -10.199515      -277.5429
  19   2.0000     -10.192270      -277.3458
  20   2.0000     -10.189395      -277.2675
  21   2.0000     -10.186480      -277.1882
  22   2.0000     -10.184588      -277.1367
  23   2.0000     -10.182249      -277.0731
  24   2.0000     -10.179790      -277.0062
  25   2.0000     -10.178416      -276.9688
  26   2.0000     -10.175905      -276.9005
  27   2.0000     -10.174531      -276.8631
  28   2.0000     -10.171808      -276.7890
  29   2.0000     -10.171051      -276.7684
  30   2.0000     -10.168473      -276.6982
  31   2.0000     -10.167529      -276.6725
  32   2.0000     -10.163485      -276.5625
  33   2.0000     -10.152278      -276.2575
  34   2.0000      -1.250923       -34.0393
  35   2.0000      -1.227350       -33.3979
  36   2.0000      -1.192075       -32.4380
  37   2.0000      -1.167725       -31.7754
  38   2.0000      -1.085046       -29.5256
  39   2.0000      -1.078847       -29.3569
  40   2.0000      -1.069377       -29.0992
  41   2.0000      -1.061738       -28.8914
  42   2.0000      -1.054703       -28.6999
  43   2.0000      -1.048463       -28.5301
  44   2.0000      -0.875477       -23.8229
  45   2.0000      -0.856758       -23.3136
  46   2.0000      -0.824213       -22.4280
  47   2.0000      -0.807868       -21.9832
  48   2.0000      -0.797228       -21.6937
  49   2.0000      -0.785387       -21.3715
  50   2.0000      -0.778851       -21.1936
  51   2.0000      -0.767148       -20.8752
  52   2.0000      -0.741027       -20.1644
  53   2.0000      -0.726013       -19.7558
  54   2.0000      -0.713644       -19.4192
  55   2.0000      -0.697689       -18.9851
  56   2.0000      -0.690528       -18.7902
  57   2.0000      -0.674304       -18.3487
  58   2.0000      -0.653170       -17.7736
  59   2.0000      -0.637765       -17.3545
  60   2.0000      -0.629802       -17.1378
  61   2.0000      -0.623985       -16.9795
  62   2.0000      -0.599106       -16.3025
  63   2.0000      -0.590634       -16.0720
  64   2.0000      -0.589565       -16.0429
  65   2.0000      -0.580310       -15.7910
  66   2.0000      -0.578034       -15.7291
  67   2.0000      -0.567237       -15.4353
  68   2.0000      -0.556910       -15.1543
  69   2.0000      -0.554225       -15.0812
  70   2.0000      -0.547631       -14.9018
  71   2.0000      -0.546502       -14.8711
  72   2.0000      -0.539911       -14.6917
  73   2.0000      -0.523466       -14.2442
  74   2.0000      -0.513854       -13.9827
  75   2.0000      -0.501530       -13.6473
  76   2.0000      -0.498740       -13.5714
  77   2.0000      -0.492847       -13.4110
  78   2.0000      -0.492072       -13.3900
  79   2.0000      -0.486029       -13.2255
  80   2.0000      -0.485306       -13.2058
  81   2.0000      -0.472880       -12.8677
  82   2.0000      -0.470424       -12.8009
  83   2.0000      -0.463706       -12.6181
  84   2.0000      -0.459622       -12.5070
  85   2.0000      -0.458987       -12.4897
  86   2.0000      -0.456994       -12.4354
  87   2.0000      -0.446166       -12.1408
  88   2.0000      -0.436644       -11.8817
  89   2.0000      -0.435695       -11.8559
  90   2.0000      -0.431935       -11.7535
  91   2.0000      -0.429943       -11.6993
  92   2.0000      -0.425216       -11.5707
  93   2.0000      -0.424141       -11.5415
  94   2.0000      -0.421790       -11.4775
  95   2.0000      -0.413847       -11.2613
  96   2.0000      -0.411608       -11.2004
  97   2.0000      -0.406971       -11.0742
  98   2.0000      -0.405993       -11.0476
  99   2.0000      -0.397567       -10.8184
 100   2.0000      -0.392061       -10.6685
 101   2.0000      -0.387003       -10.5309
 102   2.0000      -0.385301       -10.4846
 103   2.0000      -0.377609       -10.2753
 104   2.0000      -0.372469       -10.1354
 105   2.0000      -0.370301       -10.0764
 106   2.0000      -0.368336       -10.0229
 107   2.0000      -0.362790        -9.8720
 108   2.0000      -0.360119        -9.7993
 109   2.0000      -0.355331        -9.6690
 110   2.0000      -0.350130        -9.5275
 111   2.0000      -0.345984        -9.4147
 112   2.0000      -0.344131        -9.3643
 113   2.0000      -0.339867        -9.2482
 114   2.0000      -0.337007        -9.1704
 115   2.0000      -0.332423        -9.0457
 116   2.0000      -0.322092        -8.7646
 117   2.0000      -0.317460        -8.6385
 118   2.0000      -0.311792        -8.4843
 119   2.0000      -0.289283        -7.8718
 120   2.0000      -0.269449        -7.3321
 121   2.0000      -0.260629        -7.0921
 122   2.0000      -0.257252        -7.0002
 123   2.0000      -0.234629        -6.3846
 124   2.0000      -0.213720        -5.8156
 125   0.0000      -0.034514        -0.9392
 126   0.0000      -0.031142        -0.8474
 127   0.0000      -0.010869        -0.2958
 128   0.0000      -0.005952        -0.1620
 129   0.0000      -0.003482        -0.0947

MULLIKEN ATOMIC CHARGES
-----------------------
   0 O :   -0.410297
   1 O :   -0.441767
   2 C :    0.102112
   3 C :    0.067008
   4 C :    0.033469
   5 C :   -0.188413
   6 C :    0.103083
   7 C :   -0.255177
   8 C :    0.180627
   9 C :   -0.203023
  10 C :    0.262742
  11 C :   -0.276490
  12 C :   -0.164004
  13 C :   -0.153331
  14 C :   -0.265535
  15 C :   -0.257493
  16 C :   -0.124513
  17 C :   -0.106591
  18 C :   -0.284957
  19 C :   -0.269885
  20 H :    0.178981
  21 H :    0.160887
  22 H :    0.125010
  23 H :    0.116203
  24 H :    0.147790
  25 H :    0.091195
  26 H :    0.105442
  27 H :    0.094557
  28 H :    0.109903
  29 H :    0.103203
  30 H :    0.120660
  31 H :    0.130497
  32 H :    0.328187
  33 H :    0.328630
  34 H :    0.126464
  35 H :    0.122520
  36 H :    0.114581
  37 H :    0.098137
  38 H :    0.100139
  39 H :    0.136167
  40 O :   -0.242525
  41 C :   -0.031884
  42 C :    0.257390
  43 C :    0.489852
  44 O :   -0.365072
  45 O :   -0.234643
  46 F :   -0.211091
  47 H :    0.138391
  48 H :    0.126682
  49 H :    0.139449
  50 C :   -0.009292
  51 F :   -0.224164
  52 C :    0.240627
  53 H :    0.130378
  54 O :   -0.257189
  55 O :   -0.246383
  56 C :    0.402256
  57 O :   -0.289497
Sum of atomic charges:    0.0000000

LOEWDIN ATOMIC CHARGES
----------------------
   0 O :    0.088458
   1 O :    0.067383
   2 C :   -0.097319
   3 C :   -0.115661
   4 C :   -0.132383
   5 C :   -0.061390
   6 C :   -0.151220
   7 C :   -0.068398
   8 C :   -0.250737
   9 C :   -0.103587
  10 C :   -0.252578
  11 C :   -0.196502
  12 C :   -0.197379
  13 C :   -0.123820
  14 C :   -0.131143
  15 C :   -0.133050
  16 C :   -0.189575
  17 C :   -0.189651
  18 C :   -0.221189
  19 C :   -0.216921
  20 H :    0.157945
  21 H :    0.159991
  22 H :    0.153731
  23 H :    0.147044
  24 H :    0.161862
  25 H :    0.147255
  26 H :    0.147858
  27 H :    0.144307
  28 H :    0.147216
  29 H :    0.147739
  30 H :    0.145868
  31 H :    0.144983
  32 H :    0.175865
  33 H :    0.181775
  34 H :    0.123781
  35 H :    0.121775
  36 H :    0.120808
  37 H :    0.116815
  38 H :    0.131448
  39 H :    0.138306
  40 O :    0.287008
  41 C :   -0.230091
  42 C :   -0.388035
  43 C :   -0.590860
  44 O :    0.114221
  45 O :    0.307596
  46 F :    0.128444
  47 H :    0.139524
  48 H :    0.137043
  49 H :    0.142335
  50 C :   -0.232236
  51 F :    0.116758
  52 C :   -0.389399
  53 H :    0.137005
  54 O :    0.273282
  55 O :    0.295418
  56 C :   -0.612323
  57 O :    0.124601

  Mayer bond orders larger than 0.100000
B(  0-O ,  8-C ) :   1.1029 B(  0-O , 32-H ) :   0.8413 B(  1-O , 10-C ) :   1.0227
B(  1-O , 33-H ) :   0.8496 B(  2-C ,  3-C ) :   0.8480 B(  2-C ,  7-C ) :   1.2708
B(  2-C ,  8-C ) :   1.2339 B(  3-C ,  5-C ) :   1.3690 B(  3-C ,  9-C ) :   1.3544
B(  4-C ,  5-C ) :   1.3979 B(  4-C , 10-C ) :   1.2417 B(  4-C , 11-C ) :   0.8921
B(  5-C , 20-H ) :   0.9123 B(  6-C ,  7-C ) :   1.3951 B(  6-C , 12-C ) :   0.9465
B(  6-C , 13-C ) :   1.3132 B(  7-C , 21-H ) :   0.9574 B(  8-C , 15-C ) :   1.4232
B(  9-C , 14-C ) :   1.3951 B(  9-C , 22-H ) :   0.9993 B( 10-C , 14-C ) :   1.3683
B( 11-C , 16-C ) :   0.9552 B( 11-C , 23-H ) :   0.9759 B( 11-C , 24-H ) :   0.9736
B( 12-C , 17-C ) :   0.9886 B( 12-C , 25-H ) :   0.9462 B( 12-C , 26-H ) :   0.9762
B( 13-C , 15-C ) :   1.4148 B( 13-C , 27-H ) :   1.0010 B( 14-C , 28-H ) :   1.0029
B( 15-C , 29-H ) :   1.0087 B( 16-C , 18-C ) :   1.8763 B( 16-C , 30-H ) :   0.9565
B( 17-C , 19-C ) :   1.9375 B( 17-C , 31-H ) :   0.9394 B( 18-C , 34-H ) :   0.9686
B( 18-C , 35-H ) :   0.9654 B( 19-C , 36-H ) :   0.9658 B( 19-C , 37-H ) :   0.9631
B( 38-H , 42-C ) :   0.9666 B( 39-H , 41-C ) :   0.9392 B( 40-O , 41-C ) :   0.9163
B( 40-O , 43-C ) :   1.1940 B( 41-C , 42-C ) :   0.9780 B( 41-C , 47-H ) :   0.9557
B( 42-C , 45-O ) :   0.9897 B( 42-C , 46-F ) :   1.0589 B( 43-C , 44-O ) :   1.9288
B( 43-C , 45-O ) :   1.1073 B( 48-H , 50-C ) :   0.9593 B( 49-H , 50-C ) :   0.9429
B( 50-C , 52-C ) :   0.9669 B( 50-C , 54-O ) :   0.9167 B( 51-F , 52-C ) :   1.0411
B( 52-C , 53-H ) :   0.9731 B( 52-C , 55-O ) :   0.9859 B( 54-O , 56-C ) :   1.1657
B( 55-O , 56-C ) :   1.0948 B( 56-C , 57-O ) :   2.0857

Dispersion correction           -0.135149052
FINAL SINGLE POINT ENERGY     -1730.376372268532

DIPOLE MOMENT
-------------

Method             : SCF
Type of density    : Electron Density
Multiplicity       :   1
Irrep              :   0
Energy             : -1730.2412232170013340 Eh
Relativity type    :
Basis              : AO
                                X                 Y                 Z
Electronic contribution:     -8.002748788      21.082079807      17.018808322
Nuclear contribution   :      6.980495314     -21.971485408     -15.994942268
                        -----------------------------------------
Total Dipole Moment    :     -1.022253475      -0.889405601       1.023866054
                        -----------------------------------------
Magnitude (a.u.)       :      1.698336300
Magnitude (Debye)      :      4.316827810

Rotational constants in cm-1:             0.005694             0.003058             0.002784
Rotational constants in MHz :           170.712021            91.672455            83.450493

                             ****ORCA TERMINATED NORMALLY****
TOTAL RUN TIME: 0 days 0 hours 52 minutes 49 seconds 257 msec
