                         Program Version 6.0.1  -  RELEASE   -
|  1> ! Opt B3LYP def2-TZVP TightSCF TightOpt
|  2>
|  3> %maxcore 5000
|  4>
|  5> %pal
|  6> nprocs 20
|  7> end
|  8>
|  9> * xyz 0 1
| 10> O         -1.10230       -0.69800        0.00020
| 11> O          1.10230       -0.69800        0.00020
| 12> O          0.00010        1.32640        0.00020
| 13> C          0.00000        0.10280        0.00050
| 14> C         -2.36110       -0.01660       -0.00060
| 15> C          2.36100       -0.01660       -0.00060
| 16> H         -2.45960        0.59780        0.89950
| 17> H         -3.15470       -0.76840       -0.00080
| 18> H         -2.45870        0.59750       -0.90100
| 19> H          3.15470       -0.76850       -0.00090
| 20> H          2.45960        0.59780        0.89950
| 21> H          2.45870        0.59740       -0.90090
| 22> *
| 23>
| 24>                          ****END OF INPUT****
 Total Charge           Charge          ....    0
 Multiplicity           Mult            ....    1
 Number of Electrons    NEL             ....   48
FINAL SINGLE POINT ENERGY      -343.576891608053
FINAL SINGLE POINT ENERGY      -343.579408288073
FINAL SINGLE POINT ENERGY      -343.579609957320
FINAL SINGLE POINT ENERGY      -343.579570327670
FINAL SINGLE POINT ENERGY      -343.579661705588
FINAL SINGLE POINT ENERGY      -343.579664007006
FINAL SINGLE POINT ENERGY      -343.579664282464
                    ***********************HURRAY********************

CARTESIAN COORDINATES (ANGSTROEM)
---------------------------------
  O     -1.081584   -0.699492   -0.000294
  O      1.081567   -0.699514   -0.000299
  O      0.000011    1.291057   -0.000536
  C     -0.000001    0.086217   -0.000400
  C     -2.339754   -0.007534   -0.000378
  C      2.339752   -0.007585   -0.000385
  H     -2.433694    0.616279    0.888064
  H     -3.096753   -0.787109   -0.000339
  H     -2.433647    0.616144   -0.888919
  H      3.096732   -0.787179   -0.000342
  H      2.433706    0.616228    0.888056
  H      2.433663    0.616089   -0.888927

 Multiplicity           Mult            ....    1
 Number of Electrons    NEL             ....   48
 Basis Dimension        Dim             ....  222

ORBITAL ENERGIES
----------------

  NO   OCC          E(Eh)            E(eV)
   0   2.0000     -19.176051      -521.8069
   1   2.0000     -19.176041      -521.8066
   2   2.0000     -19.111476      -520.0497
   3   2.0000     -10.340969      -281.3921
   4   2.0000     -10.228382      -278.3284
   5   2.0000     -10.228381      -278.3284
   6   2.0000      -1.145522       -31.1713
   7   2.0000      -1.059241       -28.8234
   8   2.0000      -1.022879       -27.8340
   9   2.0000      -0.760943       -20.7063
  10   2.0000      -0.699559       -19.0360
  11   2.0000      -0.582684       -15.8556
  12   2.0000      -0.549598       -14.9553
  13   2.0000      -0.512033       -13.9331
  14   2.0000      -0.494383       -13.4528
  15   2.0000      -0.463557       -12.6140
  16   2.0000      -0.449230       -12.2242
  17   2.0000      -0.438274       -11.9260
  18   2.0000      -0.405005       -11.0207
  19   2.0000      -0.382579       -10.4105
  20   2.0000      -0.364511        -9.9188
  21   2.0000      -0.315504        -8.5853
  22   2.0000      -0.312114        -8.4931
  23   2.0000      -0.295107        -8.0303
  24   0.0000       0.034259         0.9322
  25   0.0000       0.039781         1.0825
  26   0.0000       0.060872         1.6564
  27   0.0000       0.061703         1.6790
  28   0.0000       0.099632         2.7111

MULLIKEN ATOMIC CHARGES
-----------------------
   0 O :   -0.264224
   1 O :   -0.264220
   2 O :   -0.361080
   3 C :    0.444204
   4 C :   -0.154813
   5 C :   -0.154816
   6 H :    0.125293
   7 H :    0.126885
   8 H :    0.125296
   9 H :    0.126885
  10 H :    0.125293
  11 H :    0.125296
Sum of atomic charges:    0.0000000

LOEWDIN ATOMIC CHARGES
----------------------
   0 O :    0.239555
   1 O :    0.239555
   2 O :    0.081186
   3 C :   -0.642894
   4 C :   -0.293520
   5 C :   -0.293521
   6 H :    0.111118
   7 H :    0.112583
   8 H :    0.111118
   9 H :    0.112584
  10 H :    0.111118
  11 H :    0.111118

  Mayer bond orders larger than 0.100000
B(  0-O ,  3-C ) :   1.2073 B(  0-O ,  4-C ) :   0.8936 B(  1-O ,  3-C ) :   1.2073
B(  1-O ,  5-C ) :   0.8936 B(  2-O ,  3-C ) :   1.9547 B(  4-C ,  6-H ) :   0.9741
B(  4-C ,  7-H ) :   0.9657 B(  4-C ,  8-H ) :   0.9741 B(  5-C ,  9-H ) :   0.9657
B(  5-C , 10-H ) :   0.9741 B(  5-C , 11-H ) :   0.9741

FINAL SINGLE POINT ENERGY      -343.579664327289

DIPOLE MOMENT
-------------

Method             : SCF
Type of density    : Electron Density
Multiplicity       :   1
Irrep              :   0
Energy             :  -343.5796643272894926 Eh
Relativity type    :
Basis              : AO
                                X                 Y                 Z
Electronic contribution:     -0.000017027      -1.007587264       0.000111317
Nuclear contribution   :      0.000015364       0.832263537      -0.000103805
                        -----------------------------------------
Total Dipole Moment    :     -0.000001663      -0.175323728       0.000007512
                        -----------------------------------------
Magnitude (a.u.)       :      0.175323728
Magnitude (Debye)      :      0.445637501

Rotational constants in cm-1:             0.348458             0.078286             0.065505
Rotational constants in MHz :         10446.493269          2346.943011          1963.803579

                             ****ORCA TERMINATED NORMALLY****
TOTAL RUN TIME: 0 days 0 hours 1 minutes 15 seconds 747 msec
