                         Program Version 6.0.1  -  RELEASE   -
|  1> ! B3LYP def2-TZVP TightSCF
|  2>
|  3> %maxcore 5000
|  4>
|  5> %pal
|  6> nprocs 20
|  7> end
|  8>
|  9> * xyz 0 1
| 10> O          -1.08158434213460     -0.69949203386043     -0.00029384953328
| 11>   O           1.08156709072262     -0.69951411011076     -0.00029875359222
| 12>   O           0.00001115410751      1.29105669202063     -0.00053645954557
| 13>   C          -0.00000090812354      0.08621701853758     -0.00040045244727
| 14>   C          -2.33975374306940     -0.00753366353516     -0.00037828061840
| 15>   C           2.33975221335991     -0.00758499844838     -0.00038522351369
| 16>   H          -2.43369391304047      0.61627864615352      0.88806397613549
| 17>   H          -3.09675261268268     -0.78710916988795     -0.00033901182921
| 18>   H          -2.43364678253281      0.61614410816935     -0.88891893815805
| 19>   H           3.09673226813191     -0.78717931573242     -0.00034157308033
| 20>   H           2.43370648603172      0.61622774986431      0.88805555676795
| 21>   H           2.43366308922984      0.61608907682972     -0.88892699058543
| 22> *
| 23>
| 24>                          ****END OF INPUT****

CARTESIAN COORDINATES (ANGSTROEM)
---------------------------------
  O     -1.081584   -0.699492   -0.000294
  O      1.081567   -0.699514   -0.000299
  O      0.000011    1.291057   -0.000536
  C     -0.000001    0.086217   -0.000400
  C     -2.339754   -0.007534   -0.000378
  C      2.339752   -0.007585   -0.000385
  H     -2.433694    0.616279    0.888064
  H     -3.096753   -0.787109   -0.000339
  H     -2.433647    0.616144   -0.888919
  H      3.096732   -0.787179   -0.000342
  H      2.433706    0.616228    0.888056
  H      2.433663    0.616089   -0.888927

 Total Charge           Charge          ....    0
 Multiplicity           Mult            ....    1
 Number of Electrons    NEL             ....   48
 Basis Dimension        Dim             ....  222

ORBITAL ENERGIES
----------------

  NO   OCC          E(Eh)            E(eV)
   0   2.0000     -19.176065      -521.8073
   1   2.0000     -19.176055      -521.8070
   2   2.0000     -19.111454      -520.0491
   3   2.0000     -10.340937      -281.3912
   4   2.0000     -10.228363      -278.3279
   5   2.0000     -10.228362      -278.3279
   6   2.0000      -1.145516       -31.1711
   7   2.0000      -1.059240       -28.8234
   8   2.0000      -1.022866       -27.8336
   9   2.0000      -0.760938       -20.7062
  10   2.0000      -0.699553       -19.0358
  11   2.0000      -0.582680       -15.8555
  12   2.0000      -0.549594       -14.9552
  13   2.0000      -0.512027       -13.9330
  14   2.0000      -0.494377       -13.4527
  15   2.0000      -0.463553       -12.6139
  16   2.0000      -0.449223       -12.2240
  17   2.0000      -0.438271       -11.9260
  18   2.0000      -0.404997       -11.0205
  19   2.0000      -0.382575       -10.4104
  20   2.0000      -0.364508        -9.9188
  21   2.0000      -0.315498        -8.5851
  22   2.0000      -0.312114        -8.4931
  23   2.0000      -0.295098        -8.0300
  24   0.0000       0.034269         0.9325
  25   0.0000       0.039784         1.0826
  26   0.0000       0.060873         1.6564
  27   0.0000       0.061705         1.6791
  28   0.0000       0.099634         2.7112

MULLIKEN ATOMIC CHARGES
-----------------------
   0 O :   -0.264239
   1 O :   -0.264236
   2 O :   -0.361071
   3 C :    0.444221
   4 C :   -0.154811
   5 C :   -0.154814
   6 H :    0.125294
   7 H :    0.126885
   8 H :    0.125296
   9 H :    0.126885
  10 H :    0.125293
  11 H :    0.125296
Sum of atomic charges:    0.0000000

LOEWDIN ATOMIC CHARGES
----------------------
   0 O :    0.239541
   1 O :    0.239541
   2 O :    0.081194
   3 C :   -0.642881
   4 C :   -0.293517
   5 C :   -0.293518
   6 H :    0.111118
   7 H :    0.112583
   8 H :    0.111118
   9 H :    0.112583
  10 H :    0.111118
  11 H :    0.111118

  Mayer bond orders larger than 0.100000
B(  0-O ,  3-C ) :   1.2073 B(  0-O ,  4-C ) :   0.8936 B(  1-O ,  3-C ) :   1.2073
B(  1-O ,  5-C ) :   0.8936 B(  2-O ,  3-C ) :   1.9547 B(  4-C ,  6-H ) :   0.9741
B(  4-C ,  7-H ) :   0.9657 B(  4-C ,  8-H ) :   0.9741 B(  5-C ,  9-H ) :   0.9657
B(  5-C , 10-H ) :   0.9741 B(  5-C , 11-H ) :   0.9741

FINAL SINGLE POINT ENERGY      -343.579664317921

DIPOLE MOMENT
-------------

Method             : SCF
Type of density    : Electron Density
Multiplicity       :   1
Irrep              :   0
Energy             :  -343.5796643179207308 Eh
Relativity type    :
Basis              : AO
                                X                 Y                 Z
Electronic contribution:     -0.000017418      -1.007520269       0.000112824
Nuclear contribution   :      0.000015364       0.832263537      -0.000103805
                        -----------------------------------------
Total Dipole Moment    :     -0.000002054      -0.175256733       0.000009019
                        -----------------------------------------
Magnitude (a.u.)       :      0.175256733
Magnitude (Debye)      :      0.445467214

Rotational constants in cm-1:             0.348458             0.078286             0.065505
Rotational constants in MHz :         10446.493269          2346.943011          1963.803579

                             ****ORCA TERMINATED NORMALLY****
TOTAL RUN TIME: 0 days 0 hours 0 minutes 8 seconds 996 msec
