                         Program Version 6.0.1  -  RELEASE   -
|  1> ! Opt B3LYP def2-TZVP TightSCF TightOpt
|  2>
|  3> %maxcore 5000
|  4>
|  5> %pal
|  6> nprocs 20
|  7> end
|  8>
|  9> * xyz 0 1
| 10> O          0.29040        2.69180       -1.03220
| 11> O         -4.31070       -0.42590        1.63560
| 12> C          0.96360        0.69900        0.13120
| 13> C         -0.39990        0.40560        0.51570
| 14> C         -2.51970       -0.66010        0.05970
| 15> C         -1.20520       -0.37760       -0.31140
| 16> C          3.30650        0.10170        0.16880
| 17> C          1.98560       -0.16460        0.52960
| 18> C          1.26710        1.82980       -0.62940
| 19> C         -0.90920        0.90620        1.71370
| 20> C         -3.02920       -0.15950        1.25790
| 21> C         -3.36780       -1.50000       -0.83750
| 22> C          4.39720       -0.82180        0.59540
| 23> C          3.60780        1.23180       -0.59100
| 24> C         -2.22370        0.62350        2.08490
| 25> C          2.58810        2.09590       -0.99000
| 26> C         -4.13330       -0.69030       -1.85080
| 27> C          4.65950       -1.92370       -0.39840
| 28> C         -5.46840       -0.63560       -1.91540
| 29> C          4.50110       -3.22600       -0.13640
| 30> H         -0.81010       -0.76760       -1.24750
| 31> H          1.75600       -1.04870        1.12160
| 32> H         -0.29500        1.51850        2.36980
| 33> H         -2.73510       -2.21550       -1.37960
| 34> H         -4.04480       -2.12650       -0.24250
| 35> H          5.32740       -0.25690        0.73970
| 36> H          4.16110       -1.23780        1.58380
| 37> H          4.63250        1.45000       -0.88010
| 38> H         -2.60750        1.02000        3.02110
| 39> H          2.83790        2.97250       -1.58190
| 40> H         -3.55590       -0.12960       -2.58200
| 41> H          5.01500       -1.63310       -1.38400
| 42> H          0.69310        3.41190       -1.54700
| 43> H         -4.48550        0.00370        2.49040
| 44> H         -5.95770       -0.03760       -2.67630
| 45> H         -6.09220       -1.18040       -1.21550
| 46> H          4.71560       -3.96940       -0.89620
| 47> H          4.15620       -3.57130        0.83190
| 48> *
| 49>
| 50>                          ****END OF INPUT****
 Total Charge           Charge          ....    0
 Multiplicity           Mult            ....    1
 Number of Electrons    NEL             ....  142
FINAL SINGLE POINT ENERGY      -846.952741773574
FINAL SINGLE POINT ENERGY      -846.958810893118
FINAL SINGLE POINT ENERGY      -846.959853232142
FINAL SINGLE POINT ENERGY      -846.959985940465
FINAL SINGLE POINT ENERGY      -846.960060296526
FINAL SINGLE POINT ENERGY      -846.960102581271
FINAL SINGLE POINT ENERGY      -846.960159264391
FINAL SINGLE POINT ENERGY      -846.960256966210
FINAL SINGLE POINT ENERGY      -846.960390106672
FINAL SINGLE POINT ENERGY      -846.960555168583
FINAL SINGLE POINT ENERGY      -846.962444130766
FINAL SINGLE POINT ENERGY      -846.962445338545
FINAL SINGLE POINT ENERGY      -846.962446685518
FINAL SINGLE POINT ENERGY      -846.962448813312
FINAL SINGLE POINT ENERGY      -846.962448108300
FINAL SINGLE POINT ENERGY      -846.962451517517
FINAL SINGLE POINT ENERGY      -846.962451945096
FINAL SINGLE POINT ENERGY      -846.962451950633
FINAL SINGLE POINT ENERGY      -846.962452293929
                    ***********************HURRAY********************

CARTESIAN COORDINATES (ANGSTROEM)
---------------------------------
  O      0.141958    2.096496   -1.717580
  O     -4.116775   -1.268372    1.416849
  C      1.018911    0.483457   -0.193227
  C     -0.338009    0.057396    0.231167
  C     -2.618152   -0.653701   -0.313495
  C     -1.354797   -0.213105   -0.691577
  C      3.453468    0.261362    0.046503
  C      2.149705   -0.105892    0.377905
  C      1.232458    1.488207   -1.154546
  C     -0.629611   -0.126138    1.584603
  C     -2.873105   -0.829034    1.052486
  C     -3.696959   -0.912513   -1.343927
  C      4.640623   -0.420270    0.700812
  C      3.624543    1.259218   -0.907605
  C     -1.881395   -0.565662    1.991628
  C      2.524687    1.865352   -1.502024
  C     -4.596407    0.278478   -1.555142
  C      4.747271   -1.883705    0.369211
  C     -5.913064    0.280534   -1.392435
  C      4.777076   -2.868521    1.258939
  H     -1.152605   -0.085919   -1.747194
  H      1.998920   -0.901695    1.098122
  H      0.123427    0.090351    2.331829
  H     -3.209112   -1.159949   -2.292305
  H     -4.299363   -1.774600   -1.052678
  H      5.553588    0.087729    0.372732
  H      4.590881   -0.302176    1.787611
  H      4.622342    1.571637   -1.193381
  H     -2.092165   -0.698230    3.048140
  H      2.670865    2.647803   -2.240173
  H     -4.095191    1.193620   -1.861058
  H      4.795785   -2.122902   -0.690381
  H      0.441080    2.793567   -2.312191
  H     -4.160869   -1.345880    2.376392
  H     -6.503766    1.171588   -1.566264
  H     -6.447165   -0.607603   -1.073300
  H      4.857269   -3.905179    0.956380
  H      4.724454   -2.673351    2.324874

 Multiplicity           Mult            ....    1
 Number of Electrons    NEL             ....  142
 Basis Dimension        Dim             ....  728

ORBITAL ENERGIES
----------------

  NO   OCC          E(Eh)            E(eV)
   0   2.0000     -19.156391      -521.2719
   1   2.0000     -19.154616      -521.2236
   2   2.0000     -10.233950      -278.4799
   3   2.0000     -10.229315      -278.3538
   4   2.0000     -10.180394      -277.0226
   5   2.0000     -10.175380      -276.8862
   6   2.0000     -10.174525      -276.8629
   7   2.0000     -10.174004      -276.8487
   8   2.0000     -10.173477      -276.8344
   9   2.0000     -10.173216      -276.8273
  10   2.0000     -10.173067      -276.8232
  11   2.0000     -10.172391      -276.8048
  12   2.0000     -10.170180      -276.7447
  13   2.0000     -10.169254      -276.7195
  14   2.0000     -10.168656      -276.7032
  15   2.0000     -10.168498      -276.6989
  16   2.0000     -10.165924      -276.6288
  17   2.0000     -10.165585      -276.6196
  18   2.0000     -10.159792      -276.4620
  19   2.0000     -10.151746      -276.2431
  20   2.0000      -1.063105       -28.9285
  21   2.0000      -1.060831       -28.8667
  22   2.0000      -0.866524       -23.5793
  23   2.0000      -0.850064       -23.1314
  24   2.0000      -0.802626       -21.8406
  25   2.0000      -0.794500       -21.6195
  26   2.0000      -0.770006       -20.9529
  27   2.0000      -0.746616       -20.3165
  28   2.0000      -0.743256       -20.2250
  29   2.0000      -0.718930       -19.5631
  30   2.0000      -0.679411       -18.4877
  31   2.0000      -0.673588       -18.3293
  32   2.0000      -0.631861       -17.1938
  33   2.0000      -0.626770       -17.0553
  34   2.0000      -0.598376       -16.2826
  35   2.0000      -0.572636       -15.5822
  36   2.0000      -0.555483       -15.1155
  37   2.0000      -0.549335       -14.9482
  38   2.0000      -0.544541       -14.8177
  39   2.0000      -0.539171       -14.6716
  40   2.0000      -0.502146       -13.6641
  41   2.0000      -0.483110       -13.1461
  42   2.0000      -0.478364       -13.0169
  43   2.0000      -0.460091       -12.5197
  44   2.0000      -0.453150       -12.3308
  45   2.0000      -0.445724       -12.1288
  46   2.0000      -0.435599       -11.8533
  47   2.0000      -0.434012       -11.8101
  48   2.0000      -0.432317       -11.7640
  49   2.0000      -0.427138       -11.6230
  50   2.0000      -0.410486       -11.1699
  51   2.0000      -0.407885       -11.0991
  52   2.0000      -0.405526       -11.0349
  53   2.0000      -0.398967       -10.8564
  54   2.0000      -0.394304       -10.7296
  55   2.0000      -0.381045       -10.3688
  56   2.0000      -0.380027       -10.3411
  57   2.0000      -0.362691        -9.8693
  58   2.0000      -0.357752        -9.7349
  59   2.0000      -0.348810        -9.4916
  60   2.0000      -0.343385        -9.3440
  61   2.0000      -0.339845        -9.2476
  62   2.0000      -0.332978        -9.0608
  63   2.0000      -0.331594        -9.0231
  64   2.0000      -0.325940        -8.8693
  65   2.0000      -0.264863        -7.2073
  66   2.0000      -0.261809        -7.1242
  67   2.0000      -0.255284        -6.9466
  68   2.0000      -0.245757        -6.6874
  69   2.0000      -0.228514        -6.2182
  70   2.0000      -0.207481        -5.6459
  71   0.0000      -0.026011        -0.7078
  72   0.0000      -0.011704        -0.3185
  73   0.0000      -0.004041        -0.1100
  74   0.0000       0.008457         0.2301
  75   0.0000       0.019907         0.5417

MULLIKEN ATOMIC CHARGES
-----------------------
   0 O :   -0.405102
   1 O :   -0.407418
   2 C :    0.059192
   3 C :    0.166592
   4 C :    0.063163
   5 C :   -0.220966
   6 C :    0.123992
   7 C :   -0.240073
   8 C :    0.209211
   9 C :   -0.220398
  10 C :    0.254252
  11 C :   -0.166857
  12 C :   -0.196114
  13 C :   -0.177090
  14 C :   -0.195393
  15 C :   -0.202842
  16 C :   -0.109724
  17 C :   -0.087483
  18 C :   -0.246096
  19 C :   -0.261913
  20 H :    0.097723
  21 H :    0.127623
  22 H :    0.117960
  23 H :    0.103068
  24 H :    0.108899
  25 H :    0.104603
  26 H :    0.101350
  27 H :    0.097241
  28 H :    0.087331
  29 H :    0.085855
  30 H :    0.102233
  31 H :    0.101780
  32 H :    0.304475
  33 H :    0.305996
  34 H :    0.104768
  35 H :    0.100349
  36 H :    0.109762
  37 H :    0.100050
Sum of atomic charges:   -0.0000000

LOEWDIN ATOMIC CHARGES
----------------------
   0 O :    0.084731
   1 O :    0.084580
   2 C :   -0.079118
   3 C :   -0.106619
   4 C :   -0.116987
   5 C :   -0.060934
   6 C :   -0.149527
   7 C :   -0.063854
   8 C :   -0.229229
   9 C :   -0.104106
  10 C :   -0.234882
  11 C :   -0.195526
  12 C :   -0.200143
  13 C :   -0.119422
  14 C :   -0.145323
  15 C :   -0.145311
  16 C :   -0.186283
  17 C :   -0.187415
  18 C :   -0.213985
  19 C :   -0.217962
  20 H :    0.152241
  21 H :    0.155105
  22 H :    0.147606
  23 H :    0.147156
  24 H :    0.147916
  25 H :    0.146632
  26 H :    0.145789
  27 H :    0.143564
  28 H :    0.139605
  29 H :    0.139777
  30 H :    0.138759
  31 H :    0.139576
  32 H :    0.184116
  33 H :    0.184763
  34 H :    0.118041
  35 H :    0.119374
  36 H :    0.119443
  37 H :    0.117856

  Mayer bond orders larger than 0.100000
B(  0-O ,  8-C ) :   1.1558 B(  0-O , 32-H ) :   0.8873 B(  1-O , 10-C ) :   1.1401
B(  1-O , 33-H ) :   0.8887 B(  2-C ,  3-C ) :   0.8836 B(  2-C ,  7-C ) :   1.3831
B(  2-C ,  8-C ) :   1.3215 B(  3-C ,  5-C ) :   1.3546 B(  3-C ,  9-C ) :   1.3835
B(  4-C ,  5-C ) :   1.4252 B(  4-C , 10-C ) :   1.3328 B(  4-C , 11-C ) :   0.9117
B(  5-C , 20-H ) :   0.9718 B(  6-C ,  7-C ) :   1.3834 B(  6-C , 12-C ) :   0.9063
B(  6-C , 13-C ) :   1.3893 B(  7-C , 21-H ) :   0.9586 B(  8-C , 15-C ) :   1.3786
B(  9-C , 14-C ) :   1.4248 B(  9-C , 22-H ) :   0.9485 B( 10-C , 14-C ) :   1.3576
B( 11-C , 16-C ) :   0.9711 B( 11-C , 23-H ) :   0.9712 B( 11-C , 24-H ) :   0.9614
B( 12-C , 17-C ) :   0.9686 B( 12-C , 25-H ) :   0.9734 B( 12-C , 26-H ) :   0.9643
B( 13-C , 15-C ) :   1.4096 B( 13-C , 27-H ) :   0.9621 B( 14-C , 28-H ) :   0.9599
B( 15-C , 29-H ) :   0.9618 B( 16-C , 18-C ) :   1.9390 B( 16-C , 30-H ) :   0.9548
B( 17-C , 19-C ) :   1.9275 B( 17-C , 31-H ) :   0.9539 B( 18-C , 34-H ) :   0.9648
B( 18-C , 35-H ) :   0.9597 B( 19-C , 36-H ) :   0.9653 B( 19-C , 37-H ) :   0.9636

FINAL SINGLE POINT ENERGY      -846.962452258428

DIPOLE MOMENT
-------------

Method             : SCF
Type of density    : Electron Density
Multiplicity       :   1
Irrep              :   0
Energy             :  -846.9624522584282431 Eh
Relativity type    :
Basis              : AO
                                X                 Y                 Z
Electronic contribution:     -2.405733844       4.454495914       0.297020943
Nuclear contribution   :      2.838977935      -4.105754795      -0.114510112
                        -----------------------------------------
Total Dipole Moment    :      0.433244090       0.348741118       0.182510831
                        -----------------------------------------
Magnitude (a.u.)       :      0.585346917
Magnitude (Debye)      :      1.487833623

Rotational constants in cm-1:             0.021141             0.005463             0.004679
Rotational constants in MHz :           633.799005           163.763763           140.282294

                             ****ORCA TERMINATED NORMALLY****
TOTAL RUN TIME: 0 days 0 hours 28 minutes 39 seconds 475 msec
