                         Program Version 6.0.1  -  RELEASE   -
|  1> ! OPT B3LYP def2-TZVP TightSCF
|  2>
|  3> %maxcore 5000
|  4>
|  5> %pal
|  6> nprocs 20
|  7> end
|  8>
|  9> * xyz 0 1
| 10> O           1.43378856117993      1.31734775544901      2.48532878704755
| 11>   O          -3.61759593235923     -2.42612042151161      2.16828097326700
| 12>   C           1.23259531625688     -0.04424895285409      0.48054092064545
| 13>   C          -0.04814948585324     -0.65362146441303      0.92523711290438
| 14>   C          -2.39984678574313     -1.17526750499472      0.47829068367683
| 15>   C          -1.18455029902863     -0.60060331018128      0.11325968323194
| 16>   C           2.98761379128301      0.16844308492504     -1.21190036940965
| 17>   C           1.78817268742070     -0.37559046819200     -0.75719273828169
| 18>   C           1.91206506007886      0.89297409741253      1.27855399855155
| 19>   C          -0.16045718514641     -1.31913950276113      2.15262110410695
| 20>   C          -2.47255147328237     -1.84292481016932      1.71152840961013
| 21>   C          -3.61620733806529     -1.04061596953390     -0.41662492249827
| 22>   C           3.56130520630761     -0.23600690753771     -2.55722045677385
| 23>   C           3.64056274898743      1.08391203633622     -0.38802618778291
| 24>   C          -1.35539418147496     -1.90682420710594      2.53919954446887
| 25>   C           3.10971451443649      1.44752321067866      0.84139620467642
| 26>   C          -4.21335133088123     -2.35368672786617     -0.85402089359666
| 27>   C           2.68067938660015      0.13590398059648     -3.71833292168709
| 28>   C          -5.48935119380702     -2.69818410676453     -0.70517054166232
| 29>   C           2.20004918343486     -0.71471581227430     -4.61748788187430
| 30>   H          -1.12391727300566     -0.07562210183326     -0.83337572916056
| 31>   H           1.26718543416149     -1.09726293241676     -1.37628059680765
| 32>   H           0.70642433760134     -1.41188769900069      2.79610646428563
| 33>   H          -4.38760441171486     -0.44466576360966      0.08378660305202
| 34>   H          -3.31968618387752     -0.47824663060489     -1.30670040199888
| 35>   H           3.74893414677893     -1.31396958894030     -2.57920248904866
| 36>   H           4.53425197797907      0.25157071420511     -2.67847158284484
| 37>   H           4.57808011039383      1.52314579005903     -0.70970643922769
| 38>   H          -1.43747111745324     -2.43825272022503      3.47859792104764
| 39>   H           3.60696165004599      2.17095530034718      1.47473827625589
| 40>   H          -3.52532659015420     -3.05266449139889     -1.32283008534001
| 41>   H           2.43094433741273      1.19120475436488     -3.79852587282295
| 42>   H           0.56136956736516      0.92975363081184      2.63785973273296
| 43>   H          -4.23517174724066     -2.57200466589471      1.43715524759518
| 44>   H          -5.86253041449204     -3.65438500126878     -1.04954998769471
| 45>   H          -6.21032178489019     -2.02856769185887     -0.24697909333646
| 46>   H           1.57293571730585     -0.38258015638858     -5.43562674978961
| 47>   H           2.42121092353956     -1.77586795468579     -4.57136923061765
| 48> *
| 49>
| 50>                          ****END OF INPUT****
 Total Charge           Charge          ....    0
 Multiplicity           Mult            ....    1
 Number of Electrons    NEL             ....  142
FINAL SINGLE POINT ENERGY      -846.968435671431
FINAL SINGLE POINT ENERGY      -846.968438138957
FINAL SINGLE POINT ENERGY      -846.968440491958
                    ***********************HURRAY********************

CARTESIAN COORDINATES (ANGSTROEM)
---------------------------------
  O      1.437814    1.319566    2.484684
  O     -3.623478   -2.417248    2.171130
  C      1.231651   -0.045244    0.481753
  C     -0.050130   -0.651017    0.927225
  C     -2.402476   -1.170184    0.480549
  C     -1.186196   -0.598894    0.114373
  C      2.986713    0.161723   -1.212158
  C      1.786408   -0.379016   -0.755791
  C      1.913645    0.891701    1.278398
  C     -0.165280   -1.311549    2.157246
  C     -2.477191   -1.835100    1.715273
  C     -3.618823   -1.037631   -0.414522
  C      3.557631   -0.245104   -2.557786
  C      3.642119    1.076648   -0.389678
  C     -1.361319   -1.896336    2.545002
  C      3.112649    1.442719    0.839609
  C     -4.204465   -2.352828   -0.860661
  C      2.682550    0.139176   -3.719013
  C     -5.475830   -2.712934   -0.709514
  C      2.194143   -0.703484   -4.621432
  H     -1.124608   -0.076153   -0.833487
  H      1.264032   -1.100600   -1.373921
  H      0.700818   -1.403726    2.801945
  H     -4.396123   -0.452025    0.089007
  H     -3.325103   -0.466490   -1.300044
  H      3.733308   -1.325105   -2.582971
  H      4.535971    0.232460   -2.676059
  H      4.580769    1.513079   -0.711965
  H     -1.445131   -2.423986    3.486362
  H      3.612507    2.165592    1.471509
  H     -3.510374   -3.040985   -1.336643
  H      2.443957    1.197332   -3.796303
  H      0.566077    0.931718    2.640779
  H     -4.234882   -2.572655    1.436723
  H     -5.839075   -3.671079   -1.058956
  H     -6.202831   -2.054038   -0.245236
  H      1.571716   -0.362051   -5.439301
  H      2.404196   -1.767045   -4.578235

 Multiplicity           Mult            ....    1
 Number of Electrons    NEL             ....  142
 Basis Dimension        Dim             ....  728

ORBITAL ENERGIES
----------------

  NO   OCC          E(Eh)            E(eV)
   0   2.0000     -19.154907      -521.2315
   1   2.0000     -19.148275      -521.0510
   2   2.0000     -10.238785      -278.6115
   3   2.0000     -10.229177      -278.3500
   4   2.0000     -10.198163      -277.5061
   5   2.0000     -10.195308      -277.4284
   6   2.0000     -10.190339      -277.2932
   7   2.0000     -10.185907      -277.1726
   8   2.0000     -10.184869      -277.1444
   9   2.0000     -10.181285      -277.0469
  10   2.0000     -10.180610      -277.0285
  11   2.0000     -10.180076      -277.0140
  12   2.0000     -10.174860      -276.8720
  13   2.0000     -10.174292      -276.8566
  14   2.0000     -10.173757      -276.8420
  15   2.0000     -10.172247      -276.8009
  16   2.0000     -10.168772      -276.7063
  17   2.0000     -10.168706      -276.7046
  18   2.0000     -10.163774      -276.5704
  19   2.0000     -10.160551      -276.4826
  20   2.0000      -1.062984       -28.9253
  21   2.0000      -1.055879       -28.7319
  22   2.0000      -0.872322       -23.7371
  23   2.0000      -0.853261       -23.2184
  24   2.0000      -0.822320       -22.3765
  25   2.0000      -0.798964       -21.7409
  26   2.0000      -0.775986       -21.1157
  27   2.0000      -0.764996       -20.8166
  28   2.0000      -0.743092       -20.2206
  29   2.0000      -0.723531       -19.6883
  30   2.0000      -0.697196       -18.9717
  31   2.0000      -0.676365       -18.4048
  32   2.0000      -0.635703       -17.2984
  33   2.0000      -0.621161       -16.9027
  34   2.0000      -0.596798       -16.2397
  35   2.0000      -0.589179       -16.0324
  36   2.0000      -0.578086       -15.7305
  37   2.0000      -0.554974       -15.1016
  38   2.0000      -0.551329       -15.0024
  39   2.0000      -0.539103       -14.6697
  40   2.0000      -0.499355       -13.5881
  41   2.0000      -0.493526       -13.4295
  42   2.0000      -0.485206       -13.2031
  43   2.0000      -0.474921       -12.9233
  44   2.0000      -0.461935       -12.5699
  45   2.0000      -0.455988       -12.4081
  46   2.0000      -0.445352       -12.1186
  47   2.0000      -0.433845       -11.8055
  48   2.0000      -0.431581       -11.7439
  49   2.0000      -0.428034       -11.6474
  50   2.0000      -0.421308       -11.4644
  51   2.0000      -0.417955       -11.3731
  52   2.0000      -0.409180       -11.1344
  53   2.0000      -0.405614       -11.0373
  54   2.0000      -0.399452       -10.8696
  55   2.0000      -0.394294       -10.7293
  56   2.0000      -0.376743       -10.2517
  57   2.0000      -0.369526       -10.0553
  58   2.0000      -0.367421        -9.9980
  59   2.0000      -0.358723        -9.7613
  60   2.0000      -0.354283        -9.6405
  61   2.0000      -0.349906        -9.5214
  62   2.0000      -0.339574        -9.2403
  63   2.0000      -0.332411        -9.0454
  64   2.0000      -0.323816        -8.8115
  65   2.0000      -0.287536        -7.8243
  66   2.0000      -0.265198        -7.2164
  67   2.0000      -0.261295        -7.1102
  68   2.0000      -0.259312        -7.0562
  69   2.0000      -0.230275        -6.2661
  70   2.0000      -0.212583        -5.7847
  71   0.0000      -0.031037        -0.8446
  72   0.0000      -0.026789        -0.7290
  73   0.0000      -0.009020        -0.2454
  74   0.0000      -0.001909        -0.0519
  75   0.0000       0.002545         0.0692

MULLIKEN ATOMIC CHARGES
-----------------------
   0 O :   -0.395424
   1 O :   -0.398814
   2 C :    0.154135
   3 C :    0.058610
   4 C :    0.086133
   5 C :   -0.277803
   6 C :    0.124709
   7 C :   -0.256849
   8 C :    0.193901
   9 C :   -0.250291
  10 C :    0.255435
  11 C :   -0.250576
  12 C :   -0.192473
  13 C :   -0.138591
  14 C :   -0.197702
  15 C :   -0.226951
  16 C :   -0.145944
  17 C :   -0.088357
  18 C :   -0.264757
  19 C :   -0.265973
  20 H :    0.122956
  21 H :    0.120895
  22 H :    0.145175
  23 H :    0.129808
  24 H :    0.117445
  25 H :    0.101626
  26 H :    0.105739
  27 H :    0.095110
  28 H :    0.111796
  29 H :    0.105051
  30 H :    0.117505
  31 H :    0.101533
  32 H :    0.322061
  33 H :    0.322846
  34 H :    0.124621
  35 H :    0.123584
  36 H :    0.108680
  37 H :    0.101149
Sum of atomic charges:    0.0000000

LOEWDIN ATOMIC CHARGES
----------------------
   0 O :    0.085699
   1 O :    0.089620
   2 C :   -0.096608
   3 C :   -0.124693
   4 C :   -0.129104
   5 C :   -0.074275
   6 C :   -0.150345
   7 C :   -0.069795
   8 C :   -0.232461
   9 C :   -0.118793
  10 C :   -0.235911
  11 C :   -0.202345
  12 C :   -0.200405
  13 C :   -0.115910
  14 C :   -0.115616
  15 C :   -0.119263
  16 C :   -0.196199
  17 C :   -0.187704
  18 C :   -0.215656
  19 C :   -0.221113
  20 H :    0.152657
  21 H :    0.153210
  22 H :    0.152296
  23 H :    0.150512
  24 H :    0.153591
  25 H :    0.145912
  26 H :    0.147109
  27 H :    0.143673
  28 H :    0.149646
  29 H :    0.147504
  30 H :    0.144151
  31 H :    0.139405
  32 H :    0.184486
  33 H :    0.183116
  34 H :    0.123845
  35 H :    0.123124
  36 H :    0.118700
  37 H :    0.117940

  Mayer bond orders larger than 0.100000
B(  0-O ,  8-C ) :   1.1574 B(  0-O , 32-H ) :   0.8657 B(  1-O , 10-C ) :   1.1335
B(  1-O , 33-H ) :   0.8619 B(  2-C ,  3-C ) :   0.8587 B(  2-C ,  7-C ) :   1.3187
B(  2-C ,  8-C ) :   1.2348 B(  3-C ,  5-C ) :   1.4246 B(  3-C ,  9-C ) :   1.3278
B(  4-C ,  5-C ) :   1.3456 B(  4-C , 10-C ) :   1.2623 B(  4-C , 11-C ) :   0.9040
B(  5-C , 20-H ) :   0.9532 B(  6-C ,  7-C ) :   1.3860 B(  6-C , 12-C ) :   0.9135
B(  6-C , 13-C ) :   1.3661 B(  7-C , 21-H ) :   0.9694 B(  8-C , 15-C ) :   1.4228
B(  9-C , 14-C ) :   1.4108 B(  9-C , 22-H ) :   0.9840 B( 10-C , 14-C ) :   1.4063
B( 11-C , 16-C ) :   0.9565 B( 11-C , 23-H ) :   0.9789 B( 11-C , 24-H ) :   0.9664
B( 12-C , 17-C ) :   0.9658 B( 12-C , 25-H ) :   0.9639 B( 12-C , 26-H ) :   0.9728
B( 13-C , 15-C ) :   1.4214 B( 13-C , 27-H ) :   0.9768 B( 14-C , 28-H ) :   0.9824
B( 15-C , 29-H ) :   0.9830 B( 16-C , 18-C ) :   1.8941 B( 16-C , 30-H ) :   0.9564
B( 17-C , 19-C ) :   1.9264 B( 17-C , 31-H ) :   0.9546 B( 18-C , 34-H ) :   0.9673
B( 18-C , 35-H ) :   0.9637 B( 19-C , 36-H ) :   0.9662 B( 19-C , 37-H ) :   0.9627

FINAL SINGLE POINT ENERGY      -846.968440939598

DIPOLE MOMENT
-------------

Method             : SCF
Type of density    : Electron Density
Multiplicity       :   1
Irrep              :   0
Energy             :  -846.9684409395979401 Eh
Relativity type    :
Basis              : AO
                                X                 Y                 Z
Electronic contribution:      2.703391524       2.804519315      12.613002525
Nuclear contribution   :     -3.541266284      -3.164442279     -13.319972826
                        -----------------------------------------
Total Dipole Moment    :     -0.837874760      -0.359922965      -0.706970301
                        -----------------------------------------
Magnitude (a.u.)       :      1.153856863
Magnitude (Debye)      :      2.932871067

Rotational constants in cm-1:             0.016354             0.006232             0.004761
Rotational constants in MHz :           490.285606           186.833160           142.743851

                             ****ORCA TERMINATED NORMALLY****
TOTAL RUN TIME: 0 days 0 hours 2 minutes 42 seconds 438 msec
